
                                 *****************
                                 * O   R   C   A *
                                 *****************

                                            #,                                       
                                            ###                                      
                                            ####                                     
                                            #####                                    
                                            ######                                   
                                           ########,                                 
                                     ,,################,,,,,                         
                               ,,#################################,,                 
                          ,,##########################################,,             
                       ,#########################################, ''#####,          
                    ,#############################################,,   '####,        
                  ,##################################################,,,,####,       
                ,###########''''           ''''###############################       
              ,#####''   ,,,,##########,,,,          '''####'''          '####       
            ,##' ,,,,###########################,,,                        '##       
           ' ,,###''''                  '''############,,,                           
         ,,##''                                '''############,,,,        ,,,,,,###''
      ,#''                                            '''#######################'''  
     '                                                          ''''####''''         
             ,#######,   #######,   ,#######,      ##                                
            ,#'     '#,  ##    ##  ,#'     '#,    #''#        ######   ,####,        
            ##       ##  ##   ,#'  ##            #'  '#       #        #'  '#        
            ##       ##  #######   ##           ,######,      #####,   #    #        
            '#,     ,#'  ##    ##  '#,     ,#' ,#      #,         ##   #,  ,#        
             '#######'   ##     ##  '#######'  #'      '#     #####' # '####'        



                  #######################################################
                  #                        -***-                        #
                  #          Department of theory and spectroscopy      #
                  #    Directorship and core code : Frank Neese         #
                  #        Max Planck Institute fuer Kohlenforschung    #
                  #                Kaiser Wilhelm Platz 1               #
                  #                 D-45470 Muelheim/Ruhr               #
                  #                      Germany                        #
                  #                                                     #
                  #                  All rights reserved                #
                  #                        -***-                        #
                  #######################################################



                         Program Version 5.0.4 -  RELEASE  -

 With contributions from (in alphabetic order):
   Daniel Aravena         : Magnetic Suceptibility
   Michael Atanasov       : Ab Initio Ligand Field Theory (pilot matlab implementation)
   Alexander A. Auer      : GIAO ZORA, VPT2 properties, NMR spectrum
   Ute Becker             : Parallelization
   Giovanni Bistoni       : ED, misc. LED, open-shell LED, HFLD
   Martin Brehm           : Molecular dynamics
   Dmytro Bykov           : SCF Hessian
   Vijay G. Chilkuri      : MRCI spin determinant printing, contributions to CSF-ICE
   Dipayan Datta          : RHF DLPNO-CCSD density
   Achintya Kumar Dutta   : EOM-CC, STEOM-CC
   Dmitry Ganyushin       : Spin-Orbit,Spin-Spin,Magnetic field MRCI
   Miquel Garcia          : C-PCM and meta-GGA Hessian, CC/C-PCM, Gaussian charge scheme
   Yang Guo               : DLPNO-NEVPT2, F12-NEVPT2, CIM, IAO-localization
   Andreas Hansen         : Spin unrestricted coupled pair/coupled cluster methods
   Benjamin Helmich-Paris : MC-RPA, TRAH-SCF, COSX integrals
   Lee Huntington         : MR-EOM, pCC
   Robert Izsak           : Overlap fitted RIJCOSX, COSX-SCS-MP3, EOM
   Marcus Kettner         : VPT2
   Christian Kollmar      : KDIIS, OOCD, Brueckner-CCSD(T), CCSD density, CASPT2, CASPT2-K
   Simone Kossmann        : Meta GGA functionals, TD-DFT gradient, OOMP2, MP2 Hessian
   Martin Krupicka        : Initial AUTO-CI
   Lucas Lang             : DCDCAS
   Marvin Lechner         : AUTO-CI (C++ implementation), FIC-MRCC
   Dagmar Lenk            : GEPOL surface, SMD
   Dimitrios Liakos       : Extrapolation schemes; Compound Job, initial MDCI parallelization
   Dimitrios Manganas     : Further ROCIS development; embedding schemes
   Dimitrios Pantazis     : SARC Basis sets
   Anastasios Papadopoulos: AUTO-CI, single reference methods and gradients
   Taras Petrenko         : DFT Hessian,TD-DFT gradient, ASA, ECA, R-Raman, ABS, FL, XAS/XES, NRVS
   Peter Pinski           : DLPNO-MP2, DLPNO-MP2 Gradient
   Christoph Reimann      : Effective Core Potentials
   Marius Retegan         : Local ZFS, SOC
   Christoph Riplinger    : Optimizer, TS searches, QM/MM, DLPNO-CCSD(T), (RO)-DLPNO pert. Triples
   Tobias Risthaus        : Range-separated hybrids, TD-DFT gradient, RPA, STAB
   Michael Roemelt        : Original ROCIS implementation
   Masaaki Saitow         : Open-shell DLPNO-CCSD energy and density
   Barbara Sandhoefer     : DKH picture change effects
   Avijit Sen             : IP-ROCIS
   Kantharuban Sivalingam : CASSCF convergence, NEVPT2, FIC-MRCI
   Bernardo de Souza      : ESD, SOC TD-DFT
   Georgi Stoychev        : AutoAux, RI-MP2 NMR, DLPNO-MP2 response
   Willem Van den Heuvel  : Paramagnetic NMR
   Boris Wezisla          : Elementary symmetry handling
   Frank Wennmohs         : Technical directorship


 We gratefully acknowledge several colleagues who have allowed us to
 interface, adapt or use parts of their codes:
   Stefan Grimme, W. Hujo, H. Kruse, P. Pracht,  : VdW corrections, initial TS optimization,
                  C. Bannwarth, S. Ehlert          DFT functionals, gCP, sTDA/sTD-DF
   Ed Valeev, F. Pavosevic, A. Kumar             : LibInt (2-el integral package), F12 methods
   Garnet Chan, S. Sharma, J. Yang, R. Olivares  : DMRG
   Ulf Ekstrom                                   : XCFun DFT Library
   Mihaly Kallay                                 : mrcc  (arbitrary order and MRCC methods)
   Jiri Pittner, Ondrej Demel                    : Mk-CCSD
   Frank Weinhold                                : gennbo (NPA and NBO analysis)
   Christopher J. Cramer and Donald G. Truhlar   : smd solvation model
   Lars Goerigk                                  : TD-DFT with DH, B97 family of functionals
   V. Asgeirsson, H. Jonsson                     : NEB implementation
   FAccTs GmbH                                   : IRC, NEB, NEB-TS, DLPNO-Multilevel, CI-OPT
                                                   MM, QMMM, 2- and 3-layer-ONIOM, Crystal-QMMM,
                                                   LR-CPCM, SF, NACMEs, symmetry and pop. for TD-DFT,
                                                   nearIR, NL-DFT gradient (VV10), updates on ESD,
                                                   ML-optimized integration grids
   S Lehtola, MJT Oliveira, MAL Marques          : LibXC Library
   Liviu Ungur et al                             : ANISO software


 Your calculation uses the libint2 library for the computation of 2-el integrals
 For citations please refer to: http://libint.valeyev.net

 Your ORCA version has been built with support for libXC version: 5.1.0
 For citations please refer to: https://tddft.org/programs/libxc/

 This ORCA versions uses:
   CBLAS   interface :  Fast vector & matrix operations
   LAPACKE interface :  Fast linear algebra routines
   Shared memory     :  Shared parallel matrices


================================================================================

----- Orbital basis set information -----
Your calculation utilizes the basis: def2-SVP
   F. Weigend and R. Ahlrichs, Phys. Chem. Chem. Phys. 7, 3297 (2005).

----- AuxJ basis set information -----
Your calculation utilizes the auxiliary basis: def2/J
   F. Weigend, Phys. Chem. Chem. Phys. 8, 1057 (2006).

================================================================================
                                        WARNINGS
                       Please study these warnings very carefully!
================================================================================


WARNING: Geometry Optimization
  ===> : Switching off AutoStart
         For restart on a previous wavefunction, please use MOREAD

INFO   : the flag for use of the SHARK integral package has been found!

================================================================================
                                       INPUT FILE
================================================================================
NAME = PPh3_opt.inp
|  1> ! BP86 def2-SVP Opt
|  2> 
|  3> # PPh3 geometry optimization
|  4> 
|  5> *xyz 0 1
|  6> P         -1.89823        2.49748        0.00000
|  7> C         -0.06823        2.49748        0.00000
|  8> C          0.62738        2.62731        1.19773
|  9> H          0.08025        2.72957        2.14037
| 10> C          2.01851        2.62731        1.19764
| 11> H          2.56590        2.72956        2.14012
| 12> C          2.71412        2.49744       -0.00008
| 13> H          3.80880        2.49744       -0.00013
| 14> C          2.01850        2.36766       -1.19778
| 15> H          2.56586        2.26559       -2.14026
| 16> C          0.62737        2.36765       -1.19772
| 17> H          0.07995        2.26552       -2.14017
| 18> C         -2.50822        2.68341        1.71530
| 19> C         -3.05262        3.89454        2.13013
| 20> H         -3.11579        4.73454        1.43101
| 21> C         -3.51673        4.03834        3.43366
| 22> H         -3.94504        4.99141        3.76013
| 23> C         -3.43655        2.97111        4.32238
| 24> H         -3.80177        3.08428        5.34811
| 25> C         -2.89212        1.76002        3.90754
| 26> H         -2.82891        0.92026        4.60690
| 27> C         -2.42801        1.61618        2.60403
| 28> H         -1.99960        0.66320        2.27755
| 29> C         -2.50823        0.91902       -0.69662
| 30> C         -2.84269       -0.12996        0.15371
| 31> H         -2.46624       -0.14293        1.18156
| 32> C         -3.65558       -1.16273       -0.30219
| 33> H         -3.91870       -1.98823        0.36690
| 34> C         -4.13410       -1.14660       -1.60834
| 35> H         -4.77376       -1.95929       -1.96706
| 36> C         -3.79959       -0.09765       -2.45865
| 37> H         -4.17602       -0.08502       -3.48648
| 38> C         -2.98671        0.93514       -2.00278
| 39> H         -2.72348        1.76057       -2.67185
| 40> 
| 41> *
| 42> 
| 43>                          ****END OF INPUT****
================================================================================

                       *****************************
                       * Geometry Optimization Run *
                       *****************************

Geometry optimization settings:
Update method            Update   .... BFGS
Choice of coordinates    CoordSys .... Z-matrix Internals
Initial Hessian          InHess   .... Almoef's Model

Convergence Tolerances:
Energy Change            TolE     ....  5.0000e-06 Eh
Max. Gradient            TolMAXG  ....  3.0000e-04 Eh/bohr
RMS Gradient             TolRMSG  ....  1.0000e-04 Eh/bohr
Max. Displacement        TolMAXD  ....  4.0000e-03 bohr
RMS Displacement         TolRMSD  ....  2.0000e-03 bohr
Strict Convergence                ....  False
------------------------------------------------------------------------------
                        ORCA OPTIMIZATION COORDINATE SETUP
------------------------------------------------------------------------------

The optimization will be done in new redundant internal coordinates
Making redundant internal coordinates   ...  (new redundants) done
Evaluating the initial hessian          ...  (Almloef) done
Evaluating the coordinates              ...  done
Calculating the B-matrix                .... done
Calculating the G-matrix                .... done
Diagonalizing the G-matrix              .... done
Small eigenvalue found = 5.538e-03
Small eigenvalue found = 6.184e-03
Small eigenvalue found = 1.388e-02
Small eigenvalue found = 2.261e-02
The first mode is                       ....   81
The number of degrees of freedom        ....   96

    -----------------------------------------------------------------
                    Redundant Internal Coordinates


    -----------------------------------------------------------------
         Definition                    Initial Value    Approx d2E/dq
    -----------------------------------------------------------------
      1. B(C   1,P   0)                  1.8300         0.417100   
      2. B(C   2,C   1)                  1.3911         0.622172   
      3. B(H   3,C   2)                  1.0947         0.353930   
      4. B(C   4,C   2)                  1.3911         0.622208   
      5. B(H   5,C   4)                  1.0947         0.353941   
      6. B(C   6,C   4)                  1.3911         0.622184   
      7. B(H   7,C   6)                  1.0947         0.353962   
      8. B(C   8,C   6)                  1.3911         0.622231   
      9. B(H   9,C   8)                  1.0947         0.353982   
     10. B(C  10,C   8)                  1.3911         0.622208   
     11. B(C  10,C   1)                  1.3911         0.622203   
     12. B(H  11,C  10)                  1.0947         0.353970   
     13. B(C  12,P   0)                  1.8300         0.417095   
     14. B(C  13,C  12)                  1.3911         0.622168   
     15. B(H  14,C  13)                  1.0947         0.353941   
     16. B(C  15,C  13)                  1.3911         0.622188   
     17. B(H  16,C  15)                  1.0947         0.353932   
     18. B(C  17,C  15)                  1.3911         0.622217   
     19. B(H  18,C  17)                  1.0947         0.353967   
     20. B(C  19,C  17)                  1.3911         0.622214   
     21. B(H  20,C  19)                  1.0947         0.353978   
     22. B(C  21,C  19)                  1.3911         0.622222   
     23. B(C  21,C  12)                  1.3911         0.622198   
     24. B(H  22,C  21)                  1.0947         0.353979   
     25. B(C  23,P   0)                  1.8300         0.417094   
     26. B(C  24,C  23)                  1.3911         0.622175   
     27. B(H  25,C  24)                  1.0947         0.353942   
     28. B(C  26,C  24)                  1.3911         0.622203   
     29. B(H  27,C  26)                  1.0947         0.353938   
     30. B(C  28,C  26)                  1.3911         0.622186   
     31. B(H  29,C  28)                  1.0947         0.353970   
     32. B(C  30,C  28)                  1.3911         0.622227   
     33. B(H  31,C  30)                  1.0947         0.353980   
     34. B(C  32,C  30)                  1.3911         0.622205   
     35. B(C  32,C  23)                  1.3911         0.622196   
     36. B(H  33,C  32)                  1.0947         0.353989   
     37. A(C   1,P   0,C  23)          109.4712         0.428470   
     38. A(C  12,P   0,C  23)          109.4712         0.428469   
     39. A(C   1,P   0,C  12)          109.4709         0.428471   
     40. A(C   2,C   1,C  10)          119.9966         0.434617   
     41. A(P   0,C   1,C  10)          120.0016         0.431532   
     42. A(P   0,C   1,C   2)          120.0018         0.431528   
     43. A(H   3,C   2,C   4)          119.9902         0.352090   
     44. A(C   1,C   2,H   3)          120.0117         0.352087   
     45. A(C   1,C   2,C   4)          119.9981         0.434617   
     46. A(H   5,C   4,C   6)          119.9956         0.352090   
     47. A(C   2,C   4,H   5)          119.9989         0.352092   
     48. A(C   2,C   4,C   6)          120.0056         0.434619   
     49. A(C   4,C   6,H   7)          120.0045         0.352093   
     50. A(H   7,C   6,C   8)          120.0002         0.352098   
     51. A(C   4,C   6,C   8)          119.9953         0.434622   
     52. A(H   9,C   8,C  10)          120.0041         0.352099   
     53. A(C   6,C   8,C  10)          120.0004         0.434625   
     54. A(C   6,C   8,H   9)          119.9955         0.352101   
     55. A(C   8,C  10,H  11)          120.0026         0.352097   
     56. A(C   1,C  10,H  11)          119.9934         0.352096   
     57. A(C   1,C  10,C   8)          120.0040         0.434621   
     58. A(P   0,C  12,C  21)          120.1090         0.431531   
     59. A(P   0,C  12,C  13)          119.8940         0.431527   
     60. A(C  13,C  12,C  21)          119.9970         0.434616   
     61. A(H  14,C  13,C  15)          119.9903         0.352090   
     62. A(C  12,C  13,C  15)          119.9975         0.434614   
     63. A(C  12,C  13,H  14)          120.0122         0.352088   
     64. A(H  16,C  15,C  17)          119.9962         0.352091   
     65. A(C  13,C  15,C  17)          120.0058         0.434620   
     66. A(C  13,C  15,H  16)          119.9981         0.352089   
     67. A(H  18,C  17,C  19)          119.9997         0.352097   
     68. A(C  15,C  17,C  19)          119.9956         0.434624   
     69. A(C  15,C  17,H  18)          120.0047         0.352097   
     70. A(C  17,C  19,H  20)          119.9959         0.352099   
     71. A(H  20,C  19,C  21)          120.0037         0.352100   
     72. A(C  17,C  19,C  21)          120.0004         0.434624   
     73. A(C  19,C  21,H  22)          120.0029         0.352100   
     74. A(C  12,C  21,H  22)          119.9933         0.352098   
     75. A(C  12,C  21,C  19)          120.0038         0.434622   
     76. A(C  24,C  23,C  32)          119.9969         0.434616   
     77. A(P   0,C  23,C  32)          117.5206         0.431530   
     78. A(P   0,C  23,C  24)          119.8581         0.431527   
     79. A(H  25,C  24,C  26)          119.9905         0.352092   
     80. A(C  23,C  24,C  26)          119.9978         0.434617   
     81. A(C  23,C  24,H  25)          120.0117         0.352089   
     82. A(H  27,C  26,C  28)          119.9957         0.352090   
     83. A(C  24,C  26,C  28)          120.0058         0.434618   
     84. A(C  24,C  26,H  27)          119.9985         0.352091   
     85. A(H  29,C  28,C  30)          120.0004         0.352099   
     86. A(C  26,C  28,C  30)          119.9952         0.434621   
     87. A(C  26,C  28,H  29)          120.0044         0.352095   
     88. A(H  31,C  30,C  32)          120.0040         0.352098   
     89. A(C  28,C  30,C  32)          120.0005         0.434624   
     90. A(C  28,C  30,H  31)          119.9955         0.352100   
     91. A(C  30,C  32,H  33)          120.0023         0.352100   
     92. A(C  23,C  32,H  33)          119.9939         0.352099   
     93. A(C  23,C  32,C  30)          120.0038         0.434620   
     94. D(C  10,C   1,P   0,C  23)     60.0002         0.003662   
     95. D(C   2,C   1,P   0,C  12)     -0.0001         0.003662   
     96. D(C  10,C   1,P   0,C  12)    179.9999         0.003662   
     97. D(C   2,C   1,P   0,C  23)   -119.9998         0.003662   
     98. D(H   3,C   2,C   1,P   0)     -0.0049         0.026798   
     99. D(H   3,C   2,C   1,C  10)    179.9952         0.026798   
    100. D(C   4,C   2,C   1,P   0)   -179.9995         0.026798   
    101. D(C   4,C   2,C   1,C  10)      0.0005         0.026798   
    102. D(C   6,C   4,C   2,C   1)     -0.0024         0.026801   
    103. D(H   5,C   4,C   2,H   3)      0.0000         0.026801   
    104. D(C   6,C   4,C   2,H   3)   -179.9971         0.026801   
    105. D(H   5,C   4,C   2,C   1)    179.9947         0.026801   
    106. D(C   8,C   6,C   4,C   2)      0.0046         0.026799   
    107. D(H   7,C   6,C   4,H   5)      0.0030         0.026799   
    108. D(H   7,C   6,C   4,C   2)   -179.9999         0.026799   
    109. D(C   8,C   6,C   4,H   5)   -179.9925         0.026799   
    110. D(C  10,C   8,C   6,H   7)    179.9995         0.026803   
    111. D(C  10,C   8,C   6,C   4)     -0.0049         0.026803   
    112. D(H   9,C   8,C   6,H   7)     -0.0030         0.026803   
    113. D(H   9,C   8,C   6,C   4)    179.9925         0.026803   
    114. D(H  11,C  10,C   8,H   9)      0.0030         0.026801   
    115. D(C   1,C  10,C   8,H   9)   -179.9944         0.026801   
    116. D(C   1,C  10,C   8,C   6)      0.0030         0.026801   
    117. D(H  11,C  10,C   1,C   2)   -179.9983         0.026800   
    118. D(H  11,C  10,C   1,P   0)      0.0018         0.026800   
    119. D(H  11,C  10,C   8,C   6)   -179.9995         0.026801   
    120. D(C   8,C  10,C   1,C   2)     -0.0008         0.026800   
    121. D(C   8,C  10,C   1,P   0)    179.9992         0.026800   
    122. D(C  21,C  12,P   0,C   1)    -73.9956         0.003662   
    123. D(C  13,C  12,P   0,C  23)   -134.0073         0.003662   
    124. D(C  13,C  12,P   0,C   1)    105.9931         0.003662   
    125. D(C  21,C  12,P   0,C  23)     46.0041         0.003662   
    126. D(C  15,C  13,C  12,C  21)      0.0016         0.026797   
    127. D(C  15,C  13,C  12,P   0)   -179.9871         0.026797   
    128. D(H  14,C  13,C  12,C  21)    179.9954         0.026797   
    129. D(H  14,C  13,C  12,P   0)      0.0067         0.026797   
    130. D(C  17,C  15,C  13,H  14)   -179.9968         0.026799   
    131. D(C  17,C  15,C  13,C  12)     -0.0030         0.026799   
    132. D(H  16,C  15,C  13,H  14)      0.0006         0.026799   
    133. D(H  16,C  15,C  13,C  12)    179.9944         0.026799   
    134. D(C  19,C  17,C  15,H  16)   -179.9927         0.026802   
    135. D(C  19,C  17,C  15,C  13)      0.0047         0.026802   
    136. D(H  18,C  17,C  15,H  16)      0.0033         0.026802   
    137. D(H  18,C  17,C  15,C  13)   -179.9993         0.026802   
    138. D(C  21,C  19,C  17,H  18)    179.9990         0.026801   
    139. D(C  21,C  19,C  17,C  15)     -0.0051         0.026801   
    140. D(H  20,C  19,C  17,H  18)     -0.0036         0.026801   
    141. D(H  20,C  19,C  17,C  15)    179.9924         0.026801   
    142. D(H  22,C  21,C  19,H  20)      0.0029         0.026802   
    143. D(C  12,C  21,C  19,H  20)   -179.9938         0.026802   
    144. D(C  12,C  21,C  19,C  17)      0.0036         0.026802   
    145. D(H  22,C  21,C  12,C  13)   -179.9986         0.026800   
    146. D(H  22,C  21,C  12,P   0)     -0.0100         0.026800   
    147. D(H  22,C  21,C  19,C  17)   -179.9997         0.026802   
    148. D(C  19,C  21,C  12,C  13)     -0.0019         0.026800   
    149. D(C  19,C  21,C  12,P   0)    179.9867         0.026800   
    150. D(C  32,C  23,P   0,C  12)    136.8711         0.003662   
    151. D(C  32,C  23,P   0,C   1)   -103.1294         0.003662   
    152. D(C  24,C  23,P   0,C  12)    -24.7739         0.003662   
    153. D(C  24,C  23,P   0,C   1)     95.2255         0.003662   
    154. D(C  26,C  24,C  23,P   0)    161.1888         0.026798   
    155. D(H  25,C  24,C  23,C  32)    179.9951         0.026798   
    156. D(H  25,C  24,C  23,P   0)    -18.8168         0.026798   
    157. D(C  26,C  24,C  23,C  32)      0.0008         0.026798   
    158. D(C  28,C  26,C  24,H  25)   -179.9971         0.026800   
    159. D(C  28,C  26,C  24,C  23)     -0.0027         0.026800   
    160. D(H  27,C  26,C  24,H  25)     -0.0000         0.026800   
    161. D(H  27,C  26,C  24,C  23)    179.9944         0.026800   
    162. D(C  30,C  28,C  26,H  27)   -179.9920         0.026799   
    163. D(C  30,C  28,C  26,C  24)      0.0051         0.026799   
    164. D(H  29,C  28,C  26,H  27)      0.0032         0.026799   
    165. D(H  29,C  28,C  26,C  24)   -179.9997         0.026799   
    166. D(C  32,C  30,C  28,H  29)    179.9993         0.026803   
    167. D(C  32,C  30,C  28,C  26)     -0.0055         0.026803   
    168. D(H  31,C  30,C  28,H  29)     -0.0032         0.026803   
    169. D(H  31,C  30,C  28,C  26)    179.9920         0.026803   
    170. D(H  33,C  32,C  30,H  31)      0.0034         0.026801   
    171. D(H  33,C  32,C  30,C  28)   -179.9991         0.026801   
    172. D(C  23,C  32,C  30,H  31)   -179.9939         0.026801   
    173. D(C  23,C  32,C  30,C  28)      0.0036         0.026801   
    174. D(H  33,C  32,C  23,C  24)   -179.9985         0.026800   
    175. D(H  33,C  32,C  23,P   0)     18.3830         0.026800   
    176. D(C  30,C  32,C  23,C  24)     -0.0012         0.026800   
    177. D(C  30,C  32,C  23,P   0)   -161.6197         0.026800   
    -----------------------------------------------------------------

Number of atoms                         .... 34
Number of degrees of freedom            .... 177

         *************************************************************
         *                GEOMETRY OPTIMIZATION CYCLE   1            *
         *************************************************************
---------------------------------
CARTESIAN COORDINATES (ANGSTROEM)
---------------------------------
  P     -1.898230    2.497480    0.000000
  C     -0.068230    2.497480    0.000000
  C      0.627380    2.627310    1.197730
  H      0.080250    2.729570    2.140370
  C      2.018510    2.627310    1.197640
  H      2.565900    2.729560    2.140120
  C      2.714120    2.497440   -0.000080
  H      3.808800    2.497440   -0.000130
  C      2.018500    2.367660   -1.197780
  H      2.565860    2.265590   -2.140260
  C      0.627370    2.367650   -1.197720
  H      0.079950    2.265520   -2.140170
  C     -2.508220    2.683410    1.715300
  C     -3.052620    3.894540    2.130130
  H     -3.115790    4.734540    1.431010
  C     -3.516730    4.038340    3.433660
  H     -3.945040    4.991410    3.760130
  C     -3.436550    2.971110    4.322380
  H     -3.801770    3.084280    5.348110
  C     -2.892120    1.760020    3.907540
  H     -2.828910    0.920260    4.606900
  C     -2.428010    1.616180    2.604030
  H     -1.999600    0.663200    2.277550
  C     -2.508230    0.919020   -0.696620
  C     -2.842690   -0.129960    0.153710
  H     -2.466240   -0.142930    1.181560
  C     -3.655580   -1.162730   -0.302190
  H     -3.918700   -1.988230    0.366900
  C     -4.134100   -1.146600   -1.608340
  H     -4.773760   -1.959290   -1.967060
  C     -3.799590   -0.097650   -2.458650
  H     -4.176020   -0.085020   -3.486480
  C     -2.986710    0.935140   -2.002780
  H     -2.723480    1.760570   -2.671850

----------------------------
CARTESIAN COORDINATES (A.U.)
----------------------------
  NO LB      ZA    FRAG     MASS         X           Y           Z
   0 P    15.0000    0    30.974   -3.587135    4.719553    0.000000
   1 C     6.0000    0    12.011   -0.128936    4.719553    0.000000
   2 C     6.0000    0    12.011    1.185576    4.964896    2.263382
   3 H     1.0000    0     1.008    0.151651    5.158140    4.044713
   4 C     6.0000    0    12.011    3.814431    4.964896    2.263212
   5 H     1.0000    0     1.008    4.848848    5.158121    4.044241
   6 C     6.0000    0    12.011    5.128943    4.719478   -0.000151
   7 H     1.0000    0     1.008    7.197589    4.719478   -0.000246
   8 C     6.0000    0    12.011    3.814412    4.474229   -2.263476
   9 H     1.0000    0     1.008    4.848773    4.281345   -4.044505
  10 C     6.0000    0    12.011    1.185557    4.474210   -2.263363
  11 H     1.0000    0     1.008    0.151084    4.281212   -4.044335
  12 C     6.0000    0    12.011   -4.739849    5.070910    3.241447
  13 C     6.0000    0    12.011   -5.768616    7.359614    4.025362
  14 H     1.0000    0     1.008   -5.887990    8.946984    2.704217
  15 C     6.0000    0    12.011   -6.645657    7.631357    6.488677
  16 H     1.0000    0     1.008   -7.455045    9.432398    7.105616
  17 C     6.0000    0    12.011   -6.494138    5.614584    8.168114
  18 H     1.0000    0     1.008   -7.184304    5.828445   10.106463
  19 C     6.0000    0    12.011   -5.465315    3.325956    7.384180
  20 H     1.0000    0     1.008   -5.345865    1.739039    8.705779
  21 C     6.0000    0    12.011   -4.588274    3.054138    4.920904
  22 H     1.0000    0     1.008   -3.778696    1.253266    4.303946
  23 C     6.0000    0    12.011   -4.739868    1.736696   -1.316421
  24 C     6.0000    0    12.011   -5.371906   -0.245589    0.290470
  25 H     1.0000    0     1.008   -4.660518   -0.270099    2.232825
  26 C     6.0000    0    12.011   -6.908045   -2.197241   -0.571056
  27 H     1.0000    0     1.008   -7.405270   -3.757210    0.693341
  28 C     6.0000    0    12.011   -7.812317   -2.166760   -3.039322
  29 H     1.0000    0     1.008   -9.021099   -3.702522   -3.717205
  30 C     6.0000    0    12.011   -7.180185   -0.184532   -4.646175
  31 H     1.0000    0     1.008   -7.891534   -0.160665   -6.588492
  32 C     6.0000    0    12.011   -5.644064    1.767158   -3.784706
  33 H     1.0000    0     1.008   -5.146631    3.326995   -5.049065

--------------------------------
INTERNAL COORDINATES (ANGSTROEM)
--------------------------------
 P      0   0   0     0.000000000000     0.00000000     0.00000000
 C      1   0   0     1.830000000000     0.00000000     0.00000000
 C      2   1   0     1.391145662359   120.00176767     0.00000000
 H      3   2   1     1.094704761157   120.01167101     0.00000000
 C      3   2   1     1.391130002911   119.99808247   180.00046125
 H      5   3   2     1.094696042288   119.99885192   179.99469689
 C      5   3   2     1.391140786333   120.00556881     0.00000000
 H      7   5   3     1.094680001142   120.00448539   180.00013566
 C      7   5   3     1.391120168354   119.99526670     0.00000000
 H      9   7   5     1.094664242999   119.99546544   179.99254569
 C      9   7   5     1.391130001330   120.00043710     0.00000000
 H     11   9   7     1.094674013485   120.00260360   180.00049865
 C      1   2   3     1.830003239068   109.47085270     0.00000000
 C     13   1   2     1.391147427773   119.89401930   105.99305846
 H     14  13   1     1.094695950162   120.01222015     0.00000000
 C     14  13   1     1.391138739666   119.99746303   180.01291632
 H     16  14  13     1.094702946876   119.99808938   179.99441222
 C     16  14  13     1.391126142267   120.00575833     0.00000000
 H     18  16  14     1.094675810548   120.00473294   180.00070156
 C     18  16  14     1.391127326523   119.99557556     0.00000000
 H     20  18  16     1.094667424974   119.99587157   179.99236164
 C     20  18  16     1.391124134576   120.00038570     0.00000000
 H     22  20  18     1.094666706765   120.00292460   180.00034920
 C      1   2   3     1.830004206553   109.47117407   240.00022708
 C     24   1   2     1.391144723205   119.85811337    95.22554321
 H     25  24   1     1.094695595086   120.01170848   341.18319381
 C     25  24   1     1.391132213343   119.99780178   161.18882584
 H     27  25  24     1.094698046267   119.99853433   179.99435597
 C     27  25  24     1.391139601118   120.00580404     0.00000000
 H     29  27  25     1.094673462773   120.00442013   180.00025334
 C     29  27  25     1.391121899296   119.99520930     0.00000000
 H     31  29  27     1.094665963068   119.99547611   179.99197492
 C     31  29  27     1.391131386822   120.00048105     0.00000000
 H     33  31  29     1.094659482533   120.00233432   180.00085475

---------------------------
INTERNAL COORDINATES (A.U.)
---------------------------
 P      0   0   0     0.000000000000     0.00000000     0.00000000
 C      1   0   0     3.458198825076     0.00000000     0.00000000
 C      2   1   0     2.628884314251   120.00176767     0.00000000
 H      3   2   1     2.068692196087   120.01167101     0.00000000
 C      3   2   1     2.628854722183   119.99808247   180.00046125
 H      5   3   2     2.068675719811   119.99885192   179.99469689
 C      5   3   2     2.628875099898   120.00556881     0.00000000
 H      7   5   3     2.068645406439   120.00448539   180.00013566
 C      7   5   3     2.628836137563   119.99526670     0.00000000
 H      9   7   5     2.068615627864   119.99546544   179.99254569
 C      9   7   5     2.628854719195   120.00043710     0.00000000
 H     11   9   7     2.068634091408   120.00260360   180.00049865
 C      1   2   3     3.458204946028   109.47085270     0.00000000
 C     13   1   2     2.628887650400   119.89401930   105.99305846
 H     14  13   1     2.068675545718   120.01222015     0.00000000
 C     14  13   1     2.628871232257   119.99746303   180.01291632
 H     16  14  13     2.068688767593   119.99808938   179.99441222
 C     16  14  13     2.628847426624   120.00575833     0.00000000
 H     18  16  14     2.068637487365   120.00473294   180.00070156
 C     18  16  14     2.628849664543   119.99557556     0.00000000
 H     20  18  16     2.068621640926   119.99587157   179.99236164
 C     20  18  16     2.628843632637   120.00038570     0.00000000
 H     22  20  18     2.068620283708   120.00292460   180.00034920
 C      1   2   3     3.458206774308   109.47117407   240.00022708
 C     24   1   2     2.628882539506   119.85811337    95.22554321
 H     25  24   1     2.068674874722   120.01170848   341.18319381
 C     25  24   1     2.628858899294   119.99780178   161.18882584
 H     27  25  24     2.068679506783   119.99853433   179.99435597
 C     27  25  24     2.628872860166   120.00580404     0.00000000
 H     29  27  25     2.068633050713   120.00442013   180.00025334
 C     29  27  25     2.628839408569   119.99520930     0.00000000
 H     31  29  27     2.068618878324   119.99547611   179.99197492
 C     31  29  27     2.628857337395   120.00048105     0.00000000
 H     33  31  29     2.068606631888   120.00233432   180.00085475

---------------------
BASIS SET INFORMATION
---------------------
There are 3 groups of distinct atoms

 Group   1 Type P   : 10s7p1d contracted to 4s3p1d pattern {5311/511/1}
 Group   2 Type C   : 7s4p1d contracted to 3s2p1d pattern {511/31/1}
 Group   3 Type H   : 4s1p contracted to 2s1p pattern {31/1}

Atom   0P    basis set group =>   1
Atom   1C    basis set group =>   2
Atom   2C    basis set group =>   2
Atom   3H    basis set group =>   3
Atom   4C    basis set group =>   2
Atom   5H    basis set group =>   3
Atom   6C    basis set group =>   2
Atom   7H    basis set group =>   3
Atom   8C    basis set group =>   2
Atom   9H    basis set group =>   3
Atom  10C    basis set group =>   2
Atom  11H    basis set group =>   3
Atom  12C    basis set group =>   2
Atom  13C    basis set group =>   2
Atom  14H    basis set group =>   3
Atom  15C    basis set group =>   2
Atom  16H    basis set group =>   3
Atom  17C    basis set group =>   2
Atom  18H    basis set group =>   3
Atom  19C    basis set group =>   2
Atom  20H    basis set group =>   3
Atom  21C    basis set group =>   2
Atom  22H    basis set group =>   3
Atom  23C    basis set group =>   2
Atom  24C    basis set group =>   2
Atom  25H    basis set group =>   3
Atom  26C    basis set group =>   2
Atom  27H    basis set group =>   3
Atom  28C    basis set group =>   2
Atom  29H    basis set group =>   3
Atom  30C    basis set group =>   2
Atom  31H    basis set group =>   3
Atom  32C    basis set group =>   2
Atom  33H    basis set group =>   3
---------------------------------
AUXILIARY/J BASIS SET INFORMATION
---------------------------------
There are 3 groups of distinct atoms

 Group   1 Type P   : 14s5p5d2f1g contracted to 8s4p3d1f1g pattern {71111111/2111/311/2/1}
 Group   2 Type C   : 12s5p4d2f1g contracted to 6s4p3d1f1g pattern {711111/2111/211/2/1}
 Group   3 Type H   : 5s2p1d contracted to 3s1p1d pattern {311/2/1}

Atom   0P    basis set group =>   1
Atom   1C    basis set group =>   2
Atom   2C    basis set group =>   2
Atom   3H    basis set group =>   3
Atom   4C    basis set group =>   2
Atom   5H    basis set group =>   3
Atom   6C    basis set group =>   2
Atom   7H    basis set group =>   3
Atom   8C    basis set group =>   2
Atom   9H    basis set group =>   3
Atom  10C    basis set group =>   2
Atom  11H    basis set group =>   3
Atom  12C    basis set group =>   2
Atom  13C    basis set group =>   2
Atom  14H    basis set group =>   3
Atom  15C    basis set group =>   2
Atom  16H    basis set group =>   3
Atom  17C    basis set group =>   2
Atom  18H    basis set group =>   3
Atom  19C    basis set group =>   2
Atom  20H    basis set group =>   3
Atom  21C    basis set group =>   2
Atom  22H    basis set group =>   3
Atom  23C    basis set group =>   2
Atom  24C    basis set group =>   2
Atom  25H    basis set group =>   3
Atom  26C    basis set group =>   2
Atom  27H    basis set group =>   3
Atom  28C    basis set group =>   2
Atom  29H    basis set group =>   3
Atom  30C    basis set group =>   2
Atom  31H    basis set group =>   3
Atom  32C    basis set group =>   2
Atom  33H    basis set group =>   3
------------------------------------------------------------------------------
                           ORCA GTO INTEGRAL CALCULATION
                           -- RI-GTO INTEGRALS CHOSEN --
------------------------------------------------------------------------------
------------------------------------------------------------------------------
                   ___                                                        
                  /   \      - P O W E R E D   B Y -                         
                 /     \                                                     
                 |  |  |   _    _      __       _____    __    __             
                 |  |  |  | |  | |    /  \     |  _  \  |  |  /  |          
                  \  \/   | |  | |   /    \    | | | |  |  | /  /          
                 / \  \   | |__| |  /  /\  \   | |_| |  |  |/  /          
                |  |  |   |  __  | /  /__\  \  |    /   |      \           
                |  |  |   | |  | | |   __   |  |    \   |  |\   \          
                \     /   | |  | | |  |  |  |  | |\  \  |  | \   \       
                 \___/    |_|  |_| |__|  |__|  |_| \__\ |__|  \__/        
                                                                              
                      - O R C A' S   B I G   F R I E N D -                    
                                      &                                       
                       - I N T E G R A L  F E E D E R -                       
                                                                              
 v1 FN, 2020, v2 2021                                                         
------------------------------------------------------------------------------


Reading SHARK input file PPh3_opt.SHARKINP.tmp ... ok
----------------------
SHARK INTEGRAL PACKAGE
----------------------

Number of atoms                             ...     34
Number of basis functions                   ...    345
Number of shells                            ...    161
Maximum angular momentum                    ...      2
Integral batch strategy                     ... SHARK/LIBINT Hybrid
RI-J (if used) integral strategy            ... SPLIT-RIJ (Revised 2003 algorithm where possible)
Printlevel                                  ...      1
Contraction scheme used                     ... SEGMENTED contraction
Coulomb Range Separation                    ... NOT USED
Exchange Range Separation                   ... NOT USED
Finite Nucleus Model                        ... NOT USED
Auxiliary Coulomb fitting basis             ... AVAILABLE
   # of basis functions in Aux-J            ...   1098
   # of shells in Aux-J                     ...    362
   Maximum angular momentum in Aux-J        ...      4
Auxiliary J/K fitting basis                 ... NOT available
Auxiliary Correlation fitting basis         ... NOT available
Auxiliary 'external' fitting basis          ... NOT available
Integral threshold                          ...     2.500000e-11
Primitive cut-off                           ...     2.500000e-12
Primitive pair pre-selection threshold      ...     2.500000e-12

Calculating pre-screening integrals         ... done (  0.0 sec) Dimension = 161
Organizing shell pair data                  ... done (  0.1 sec)
Shell pair information
Total number of shell pairs                 ...     13041
Shell pairs after pre-screening             ...     10167
Total number of primitive shell pairs       ...     48197
Primitive shell pairs kept                  ...     24216
          la=0 lb=0:   3114 shell pairs
          la=1 lb=0:   3795 shell pairs
          la=1 lb=1:   1183 shell pairs
          la=2 lb=0:   1221 shell pairs
          la=2 lb=1:    741 shell pairs
          la=2 lb=2:    113 shell pairs

Calculating one electron integrals          ... done (  0.0 sec)
Calculating RI/J V-Matrix + Cholesky decomp.... done (  0.1 sec)
Calculating Nuclear repulsion               ... done (  0.0 sec) ENN=   1398.441776520383 Eh

SHARK setup successfully completed in   0.4 seconds

Maximum memory used throughout the entire GTOINT-calculation: 64.6 MB
-------------------------------------------------------------------------------
                                 ORCA SCF
-------------------------------------------------------------------------------

------------
SCF SETTINGS
------------
Hamiltonian:
 Density Functional     Method          .... DFT(GTOs)
 Exchange Functional    Exchange        .... B88
   X-Alpha parameter    XAlpha          ....  0.666667
   Becke's b parameter  XBeta           ....  0.004200
 Correlation Functional Correlation     .... P86
 LDA part of GGA corr.  LDAOpt          .... PW91-LDA
 Gradients option       PostSCFGGA      .... off
   Density functional embedding theory  .... OFF
   NL short-range parameter             ....  4.400000
 RI-approximation to the Coulomb term is turned on
   Number of AuxJ basis functions       .... 1098


General Settings:
 Integral files         IntName         .... PPh3_opt
 Hartree-Fock type      HFTyp           .... RHF
 Total Charge           Charge          ....    0
 Multiplicity           Mult            ....    1
 Number of Electrons    NEL             ....  138
 Basis Dimension        Dim             ....  345
 Nuclear Repulsion      ENuc            ....   1398.4417765204 Eh

Convergence Acceleration:
 DIIS                   CNVDIIS         .... on
   Start iteration      DIISMaxIt       ....    12
   Startup error        DIISStart       ....  0.200000
   # of expansion vecs  DIISMaxEq       ....     5
   Bias factor          DIISBfac        ....   1.050
   Max. coefficient     DIISMaxC        ....  10.000
 Trust-Rad. Augm. Hess. CNVTRAH         .... auto
   Auto Start mean grad. ratio tolernc. ....  1.125000
   Auto Start start iteration           ....    20
   Auto Start num. interpolation iter.  ....    10
   Max. Number of Micro iterations      ....    16
   Max. Number of Macro iterations      .... Maxiter - #DIIS iter
   Number of Davidson start vectors     ....     2
   Converg. threshold I  (grad. norm)   ....   1.000e-05
   Converg. threshold II (energy diff.) ....   1.000e-08
   Grad. Scal. Fac. for Micro threshold ....   0.100
   Minimum threshold for Micro iter.    ....   0.010
   NR start threshold (gradient norm)   ....   0.001
   Initial trust radius                 ....   0.400
   Minimum AH scaling param. (alpha)    ....   1.000
   Maximum AH scaling param. (alpha)    .... 1000.000
   Orbital update algorithm             .... Taylor
   White noise on init. David. guess    .... on
   Maximum white noise                  ....   0.010
   Quad. conv. algorithm                .... NR
 SOSCF                  CNVSOSCF        .... on
   Start iteration      SOSCFMaxIt      ....   150
   Startup grad/error   SOSCFStart      ....  0.003300
 Level Shifting         CNVShift        .... on
   Level shift para.    LevelShift      ....    0.2500
   Turn off err/grad.   ShiftErr        ....    0.0010
 Zerner damping         CNVZerner       .... off
 Static damping         CNVDamp         .... on
   Fraction old density DampFac         ....    0.7000
   Max. Damping (<1)    DampMax         ....    0.9800
   Min. Damping (>=0)   DampMin         ....    0.0000
   Turn off err/grad.   DampErr         ....    0.1000
 Fernandez-Rico         CNVRico         .... off

SCF Procedure:
 Maximum # iterations   MaxIter         ....   125
 SCF integral mode      SCFMode         .... Direct
   Integral package                     .... SHARK and LIBINT hybrid scheme
 Reset frequency        DirectResetFreq ....    20
 Integral Threshold     Thresh          ....  2.500e-11 Eh
 Primitive CutOff       TCut            ....  2.500e-12 Eh

Convergence Tolerance:
 Convergence Check Mode ConvCheckMode   .... Total+1el-Energy
 Convergence forced     ConvForced      .... 0
 Energy Change          TolE            ....  1.000e-08 Eh
 1-El. energy change                    ....  1.000e-05 Eh
 Orbital Gradient       TolG            ....  1.000e-05
 Orbital Rotation angle TolX            ....  1.000e-05
 DIIS Error             TolErr          ....  5.000e-07


Diagonalization of the overlap matrix:
Smallest eigenvalue                        ... 2.622e-04
Time for diagonalization                   ...    0.023 sec
Threshold for overlap eigenvalues          ... 1.000e-08
Number of eigenvalues below threshold      ... 0
Time for construction of square roots      ...    0.020 sec
Total time needed                          ...    0.043 sec

Time for model grid setup =    0.593 sec

------------------------------
INITIAL GUESS: MODEL POTENTIAL
------------------------------
Loading Hartree-Fock densities                     ... done
Calculating cut-offs                               ... done
Initializing the effective Hamiltonian             ... done
Setting up the integral package (SHARK)            ... done
Starting the Coulomb interaction                   ... done (   0.7 sec)
Reading the grid                                   ... done
Mapping shells                                     ... done
Starting the XC term evaluation                    ... done (   0.5 sec)
  promolecular density results
     # of electrons  =    137.996872283
     EX              =   -119.651300600
     EC              =     -5.105748134
     EX+EC           =   -124.757048734
Transforming the Hamiltonian                       ... done (   0.0 sec)
Diagonalizing the Hamiltonian                      ... done (   0.0 sec)
Back transforming the eigenvectors                 ... done (   0.0 sec)
Now organizing SCF variables                       ... done
                      ------------------
                      INITIAL GUESS DONE (   1.8 sec)
                      ------------------
-------------------
DFT GRID GENERATION
-------------------

General Integration Accuracy     IntAcc      ... 4.388
Radial Grid Type                 RadialGrid  ... OptM3 with GC (2021)
Angular Grid (max. ang.)         AngularGrid ... 4 (Lebedev-302)
Angular grid pruning method      GridPruning ... 4 (adaptive)
Weight generation scheme         WeightScheme... Becke
Basis function cutoff            BFCut       ... 1.0000e-11
Integration weight cutoff        WCut        ... 1.0000e-14
Angular grids for H and He will be reduced by one unit
Partially contracted basis set               ... off
Rotationally invariant grid construction     ... off

Total number of grid points                  ...   162641
Total number of batches                      ...     2557
Average number of points per batch           ...       63
Average number of grid points per atom       ...     4784
Time for grid setup =    2.107 sec

--------------
SCF ITERATIONS
--------------
ITER       Energy         Delta-E        Max-DP      RMS-DP      [F,P]     Damp
               ***  Starting incremental Fock matrix formation  ***
  0  -1035.3730220842   0.000000000000 0.04971824  0.00148770  0.1226848 0.7000
  1  -1035.5275785222  -0.154556437978 0.03266223  0.00104766  0.0557584 0.7000
                               ***Turning on DIIS***
  2  -1035.5854095691  -0.057831046950 0.08117286  0.00172022  0.0189653 0.0000
  3  -1035.6670642336  -0.081654664507 0.02248868  0.00082743  0.0406455 0.0000
  4  -1035.6935885446  -0.026524310923 0.02521486  0.00026415  0.0069518 0.0000
                      *** Initiating the SOSCF procedure ***
                           *** Shutting down DIIS ***
                      *** Re-Reading the Fockian *** 
                      *** Removing any level shift *** 
ITER      Energy       Delta-E        Grad      Rot      Max-DP    RMS-DP
  5  -1035.69485769  -0.0012691476  0.000555  0.000555  0.003195  0.000085
               *** Restarting incremental Fock matrix formation ***
  6  -1035.69492850  -0.0000708040  0.000409  0.002130  0.003031  0.000075
  7  -1035.69486923   0.0000592654  0.001265  0.001723  0.002142  0.000045
  8  -1035.69494211  -0.0000728815  0.000077  0.000581  0.000690  0.000015
  9  -1035.69494073   0.0000013833  0.000128  0.000267  0.000389  0.000008
 10  -1035.69494303  -0.0000023050  0.000034  0.000162  0.000222  0.000004
 11  -1035.69494290   0.0000001379  0.000077  0.000117  0.000104  0.000003
 12  -1035.69494308  -0.0000001878  0.000006  0.000027  0.000050  0.000001
 13  -1035.69494307   0.0000000169  0.000011  0.000023  0.000027  0.000001
 14  -1035.69494308  -0.0000000163  0.000003  0.000011  0.000037  0.000000
 15  -1035.69494308   0.0000000006  0.000005  0.000008  0.000011  0.000000
                  ***Gradient check signals convergence***
              ***Rediagonalizing the Fockian in SOSCF/NRSCF***

               *****************************************************
               *                     SUCCESS                       *
               *           SCF CONVERGED AFTER  16 CYCLES          *
               *****************************************************


----------------
TOTAL SCF ENERGY
----------------

Total Energy       :        -1035.69494308 Eh          -28182.69218 eV

Components:
Nuclear Repulsion  :         1398.44177652 Eh           38053.53534 eV
Electronic Energy  :        -2434.13671960 Eh          -66236.22753 eV
One Electron Energy:        -4187.37276693 Eh         -113944.20580 eV
Two Electron Energy:         1753.23604733 Eh           47707.97827 eV

Virial components:
Potential Energy   :        -2062.55957534 Eh          -56125.09939 eV
Kinetic Energy     :         1026.86463226 Eh           27942.40721 eV
Virial Ratio       :            2.00859929


DFT components:
N(Alpha)           :       68.999875271065 electrons
N(Beta)            :       68.999875271065 electrons
N(Total)           :      137.999750542130 electrons
E(X)               :     -121.350186693821 Eh       
E(C)               :       -5.110961778384 Eh       
E(XC)              :     -126.461148472204 Eh       
DFET-embed. en.    :        0.000000000000 Eh       

---------------
SCF CONVERGENCE
---------------

  Last Energy change         ...    1.3638e-09  Tolerance :   1.0000e-08
  Last MAX-Density change    ...    2.1838e-05  Tolerance :   1.0000e-07
  Last RMS-Density change    ...    1.9741e-07  Tolerance :   5.0000e-09
  Last Orbital Gradient      ...    7.6414e-07  Tolerance :   1.0000e-05
  Last Orbital Rotation      ...    2.6237e-06  Tolerance :   1.0000e-05

             **** THE GBW FILE WAS UPDATED (PPh3_opt.gbw) ****
             **** DENSITY PPh3_opt.scfp WAS UPDATED ****
             **** ENERGY FILE WAS UPDATED (PPh3_opt.en.tmp) ****
             **** THE GBW FILE WAS UPDATED (PPh3_opt.gbw) ****
             **** DENSITY PPh3_opt.scfp WAS UPDATED ****
----------------
ORBITAL ENERGIES
----------------

  NO   OCC          E(Eh)            E(eV) 
   0   2.0000     -76.336086     -2077.2105 
   1   2.0000      -9.928571      -270.1702 
   2   2.0000      -9.926483      -270.1133 
   3   2.0000      -9.926116      -270.1033 
   4   2.0000      -9.925642      -270.0905 
   5   2.0000      -9.925082      -270.0752 
   6   2.0000      -9.924829      -270.0683 
   7   2.0000      -9.923259      -270.0256 
   8   2.0000      -9.920559      -269.9521 
   9   2.0000      -9.920284      -269.9447 
  10   2.0000      -9.919950      -269.9356 
  11   2.0000      -9.919296      -269.9178 
  12   2.0000      -9.919177      -269.9145 
  13   2.0000      -9.917542      -269.8700 
  14   2.0000      -9.914896      -269.7980 
  15   2.0000      -9.914576      -269.7893 
  16   2.0000      -9.913400      -269.7573 
  17   2.0000      -9.912149      -269.7233 
  18   2.0000      -9.911745      -269.7123 
  19   2.0000      -6.306273      -171.6024 
  20   2.0000      -4.527665      -123.2040 
  21   2.0000      -4.527413      -123.1972 
  22   2.0000      -4.523868      -123.1007 
  23   2.0000      -0.789479       -21.4828 
  24   2.0000      -0.780783       -21.2462 
  25   2.0000      -0.774809       -21.0836 
  26   2.0000      -0.701934       -19.1006 
  27   2.0000      -0.682724       -18.5779 
  28   2.0000      -0.677607       -18.4386 
  29   2.0000      -0.673488       -18.3265 
  30   2.0000      -0.670480       -18.2447 
  31   2.0000      -0.668725       -18.1969 
  32   2.0000      -0.587257       -15.9801 
  33   2.0000      -0.559579       -15.2269 
  34   2.0000      -0.545788       -14.8516 
  35   2.0000      -0.542569       -14.7641 
  36   2.0000      -0.537904       -14.6371 
  37   2.0000      -0.536176       -14.5901 
  38   2.0000      -0.507667       -13.8143 
  39   2.0000      -0.473237       -12.8774 
  40   2.0000      -0.468988       -12.7618 
  41   2.0000      -0.449001       -12.2179 
  42   2.0000      -0.418534       -11.3889 
  43   2.0000      -0.413042       -11.2395 
  44   2.0000      -0.410619       -11.1735 
  45   2.0000      -0.406238       -11.0543 
  46   2.0000      -0.398356       -10.8398 
  47   2.0000      -0.395228       -10.7547 
  48   2.0000      -0.387877       -10.5547 
  49   2.0000      -0.376388       -10.2420 
  50   2.0000      -0.375048       -10.2056 
  51   2.0000      -0.369830       -10.0636 
  52   2.0000      -0.360738        -9.8162 
  53   2.0000      -0.344194        -9.3660 
  54   2.0000      -0.339966        -9.2509 
  55   2.0000      -0.334400        -9.0995 
  56   2.0000      -0.327596        -8.9143 
  57   2.0000      -0.317829        -8.6486 
  58   2.0000      -0.305480        -8.3125 
  59   2.0000      -0.301152        -8.1948 
  60   2.0000      -0.290871        -7.9150 
  61   2.0000      -0.284855        -7.7513 
  62   2.0000      -0.252440        -6.8692 
  63   2.0000      -0.243166        -6.6169 
  64   2.0000      -0.242781        -6.6064 
  65   2.0000      -0.234226        -6.3736 
  66   2.0000      -0.231013        -6.2862 
  67   2.0000      -0.227801        -6.1988 
  68   2.0000      -0.171699        -4.6722 
  69   0.0000      -0.067242        -1.8298 
  70   0.0000      -0.054756        -1.4900 
  71   0.0000      -0.048579        -1.3219 
  72   0.0000      -0.042390        -1.1535 
  73   0.0000      -0.038557        -1.0492 
  74   0.0000      -0.035783        -0.9737 
  75   0.0000       0.023037         0.6269 
  76   0.0000       0.030206         0.8219 
  77   0.0000       0.047920         1.3040 
  78   0.0000       0.062322         1.6959 
  79   0.0000       0.067079         1.8253 
  80   0.0000       0.067681         1.8417 
  81   0.0000       0.076036         2.0691 
  82   0.0000       0.083145         2.2625 
  83   0.0000       0.088691         2.4134 
  84   0.0000       0.096565         2.6277 
  85   0.0000       0.101252         2.7552 
  86   0.0000       0.103836         2.8255 
  87   0.0000       0.109269         2.9734 
  88   0.0000       0.118788         3.2324 
  89   0.0000       0.124907         3.3989 
  90   0.0000       0.130024         3.5381 
  91   0.0000       0.135207         3.6792 
  92   0.0000       0.136730         3.7206 
  93   0.0000       0.141303         3.8450 
  94   0.0000       0.162116         4.4114 
  95   0.0000       0.194792         5.3006 
  96   0.0000       0.213843         5.8190 
  97   0.0000       0.233492         6.3536 
  98   0.0000       0.236953         6.4478 
  99   0.0000       0.245531         6.6812 
 100   0.0000       0.251288         6.8379 
 101   0.0000       0.256911         6.9909 
 102   0.0000       0.260279         7.0825 
 103   0.0000       0.263323         7.1654 
 104   0.0000       0.265113         7.2141 
 105   0.0000       0.273382         7.4391 
 106   0.0000       0.280029         7.6200 
 107   0.0000       0.303117         8.2482 
 108   0.0000       0.304684         8.2909 
 109   0.0000       0.327351         8.9077 
 110   0.0000       0.336397         9.1538 
 111   0.0000       0.339143         9.2286 
 112   0.0000       0.350167         9.5285 
 113   0.0000       0.356899         9.7117 
 114   0.0000       0.366094         9.9619 
 115   0.0000       0.369305        10.0493 
 116   0.0000       0.376717        10.2510 
 117   0.0000       0.381331        10.3765 
 118   0.0000       0.384932        10.4745 
 119   0.0000       0.394018        10.7218 
 120   0.0000       0.399782        10.8786 
 121   0.0000       0.406696        11.0668 
 122   0.0000       0.409109        11.1324 
 123   0.0000       0.417169        11.3517 
 124   0.0000       0.422257        11.4902 
 125   0.0000       0.431427        11.7397 
 126   0.0000       0.434093        11.8123 
 127   0.0000       0.436323        11.8729 
 128   0.0000       0.438985        11.9454 
 129   0.0000       0.440334        11.9821 
 130   0.0000       0.443580        12.0704 
 131   0.0000       0.447001        12.1635 
 132   0.0000       0.454407        12.3651 
 133   0.0000       0.458378        12.4731 
 134   0.0000       0.463270        12.6062 
 135   0.0000       0.475365        12.9353 
 136   0.0000       0.496987        13.5237 
 137   0.0000       0.501828        13.6554 
 138   0.0000       0.502922        13.6852 
 139   0.0000       0.509707        13.8698 
 140   0.0000       0.519118        14.1259 
 141   0.0000       0.526849        14.3363 
 142   0.0000       0.529574        14.4104 
 143   0.0000       0.538924        14.6649 
 144   0.0000       0.545627        14.8473 
 145   0.0000       0.553056        15.0494 
 146   0.0000       0.567184        15.4339 
 147   0.0000       0.583389        15.8748 
 148   0.0000       0.589633        16.0447 
 149   0.0000       0.596544        16.2328 
 150   0.0000       0.597546        16.2600 
 151   0.0000       0.599250        16.3064 
 152   0.0000       0.604117        16.4389 
 153   0.0000       0.606424        16.5016 
 154   0.0000       0.611653        16.6439 
 155   0.0000       0.617211        16.7952 
 156   0.0000       0.619711        16.8632 
 157   0.0000       0.634980        17.2787 
 158   0.0000       0.637445        17.3458 
 159   0.0000       0.643465        17.5096 
 160   0.0000       0.647143        17.6097 
 161   0.0000       0.652992        17.7688 
 162   0.0000       0.660043        17.9607 
 163   0.0000       0.665420        18.1070 
 164   0.0000       0.666315        18.1314 
 165   0.0000       0.672669        18.3042 
 166   0.0000       0.679351        18.4861 
 167   0.0000       0.680946        18.5295 
 168   0.0000       0.688600        18.7378 
 169   0.0000       0.697305        18.9746 
 170   0.0000       0.699298        19.0289 
 171   0.0000       0.706606        19.2277 
 172   0.0000       0.707779        19.2596 
 173   0.0000       0.716632        19.5005 
 174   0.0000       0.725876        19.7521 
 175   0.0000       0.733913        19.9708 
 176   0.0000       0.741607        20.1802 
 177   0.0000       0.746521        20.3139 
 178   0.0000       0.760674        20.6990 
 179   0.0000       0.765905        20.8413 
 180   0.0000       0.772280        21.0148 
 181   0.0000       0.802705        21.8427 
 182   0.0000       0.806494        21.9458 
 183   0.0000       0.825225        22.4555 
 184   0.0000       0.840220        22.8636 
 185   0.0000       0.849243        23.1091 
 186   0.0000       0.861751        23.4494 
 187   0.0000       0.864015        23.5110 
 188   0.0000       0.890354        24.2278 
 189   0.0000       0.908072        24.7099 
 190   0.0000       0.920146        25.0385 
 191   0.0000       0.931071        25.3357 
 192   0.0000       0.937117        25.5003 
 193   0.0000       0.948883        25.8204 
 194   0.0000       0.971274        26.4297 
 195   0.0000       1.021665        27.8009 
 196   0.0000       1.043932        28.4068 
 197   0.0000       1.050540        28.5866 
 198   0.0000       1.088835        29.6287 
 199   0.0000       1.106393        30.1065 
 200   0.0000       1.109656        30.1953 
 201   0.0000       1.130871        30.7726 
 202   0.0000       1.139087        30.9961 
 203   0.0000       1.143216        31.1085 
 204   0.0000       1.162724        31.6393 
 205   0.0000       1.170408        31.8484 
 206   0.0000       1.179220        32.0882 
 207   0.0000       1.186184        32.2777 
 208   0.0000       1.191233        32.4151 
 209   0.0000       1.191993        32.4358 
 210   0.0000       1.198277        32.6068 
 211   0.0000       1.213831        33.0300 
 212   0.0000       1.218571        33.1590 
 213   0.0000       1.221130        33.2286 
 214   0.0000       1.231219        33.5032 
 215   0.0000       1.242687        33.8152 
 216   0.0000       1.243089        33.8262 
 217   0.0000       1.254727        34.1429 
 218   0.0000       1.261794        34.3351 
 219   0.0000       1.272887        34.6370 
 220   0.0000       1.297542        35.3079 
 221   0.0000       1.342813        36.5398 
 222   0.0000       1.410000        38.3681 
 223   0.0000       1.453369        39.5482 
 224   0.0000       1.463830        39.8328 
 225   0.0000       1.476513        40.1780 
 226   0.0000       1.497198        40.7408 
 227   0.0000       1.541100        41.9355 
 228   0.0000       1.580955        43.0200 
 229   0.0000       1.597782        43.4779 
 230   0.0000       1.606754        43.7220 
 231   0.0000       1.611816        43.8597 
 232   0.0000       1.612372        43.8749 
 233   0.0000       1.615817        43.9686 
 234   0.0000       1.626754        44.2662 
 235   0.0000       1.642258        44.6881 
 236   0.0000       1.644406        44.7466 
 237   0.0000       1.650977        44.9254 
 238   0.0000       1.665067        45.3088 
 239   0.0000       1.667500        45.3750 
 240   0.0000       1.674235        45.5582 
 241   0.0000       1.675385        45.5896 
 242   0.0000       1.681088        45.7447 
 243   0.0000       1.682971        45.7960 
 244   0.0000       1.686858        45.9017 
 245   0.0000       1.690063        45.9889 
 246   0.0000       1.692838        46.0645 
 247   0.0000       1.699891        46.2564 
 248   0.0000       1.706989        46.4495 
 249   0.0000       1.710674        46.5498 
 250   0.0000       1.721883        46.8548 
 251   0.0000       1.734154        47.1887 
 252   0.0000       1.740901        47.3723 
 253   0.0000       1.755427        47.7676 
 254   0.0000       1.764439        48.0128 
 255   0.0000       1.772039        48.2196 
 256   0.0000       1.772552        48.2336 
 257   0.0000       1.805071        49.1185 
 258   0.0000       1.824169        49.6381 
 259   0.0000       1.836576        49.9758 
 260   0.0000       1.852490        50.4088 
 261   0.0000       1.862461        50.6801 
 262   0.0000       1.867311        50.8121 
 263   0.0000       1.873840        50.9898 
 264   0.0000       1.877979        51.1024 
 265   0.0000       1.885217        51.2993 
 266   0.0000       1.887001        51.3479 
 267   0.0000       1.895800        51.5873 
 268   0.0000       1.904349        51.8200 
 269   0.0000       1.911860        52.0244 
 270   0.0000       1.918002        52.1915 
 271   0.0000       1.929457        52.5032 
 272   0.0000       1.943540        52.8864 
 273   0.0000       1.975116        53.7456 
 274   0.0000       1.982749        53.9533 
 275   0.0000       1.996516        54.3280 
 276   0.0000       2.020060        54.9686 
 277   0.0000       2.029492        55.2253 
 278   0.0000       2.038180        55.4617 
 279   0.0000       2.057019        55.9743 
 280   0.0000       2.063544        56.1519 
 281   0.0000       2.076817        56.5131 
 282   0.0000       2.084083        56.7108 
 283   0.0000       2.085203        56.7412 
 284   0.0000       2.096652        57.0528 
 285   0.0000       2.115097        57.5547 
 286   0.0000       2.146698        58.4146 
 287   0.0000       2.156546        58.6826 
 288   0.0000       2.196151        59.7603 
 289   0.0000       2.207841        60.0784 
 290   0.0000       2.211461        60.1769 
 291   0.0000       2.215578        60.2889 
 292   0.0000       2.222943        60.4894 
 293   0.0000       2.224191        60.5233 
 294   0.0000       2.226278        60.5801 
 295   0.0000       2.230621        60.6983 
 296   0.0000       2.235716        60.8369 
 297   0.0000       2.244222        61.0684 
 298   0.0000       2.253315        61.3158 
 299   0.0000       2.264720        61.6262 
 300   0.0000       2.267972        61.7147 
 301   0.0000       2.277924        61.9855 
 302   0.0000       2.284330        62.1598 
 303   0.0000       2.308111        62.8069 
 304   0.0000       2.319357        63.1129 
 305   0.0000       2.339747        63.6678 
 306   0.0000       2.445320        66.5405 
 307   0.0000       2.456295        66.8392 
 308   0.0000       2.472134        67.2702 
 309   0.0000       2.513754        68.4027 
 310   0.0000       2.524457        68.6940 
 311   0.0000       2.530054        68.8463 
 312   0.0000       2.532663        68.9173 
 313   0.0000       2.541437        69.1560 
 314   0.0000       2.551467        69.4289 
 315   0.0000       2.563381        69.7531 
 316   0.0000       2.571643        69.9780 
 317   0.0000       2.574482        70.0552 
 318   0.0000       2.600516        70.7636 
 319   0.0000       2.628520        71.5257 
 320   0.0000       2.634319        71.6835 
 321   0.0000       2.641197        71.8706 
 322   0.0000       2.649822        72.1053 
 323   0.0000       2.693371        73.2903 
 324   0.0000       2.733912        74.3935 
 325   0.0000       2.745187        74.7003 
 326   0.0000       2.757206        75.0274 
 327   0.0000       2.767043        75.2951 
 328   0.0000       2.779219        75.6264 
 329   0.0000       2.793973        76.0279 
 330   0.0000       2.805963        76.3541 
 331   0.0000       2.812557        76.5336 
 332   0.0000       2.862467        77.8917 
 333   0.0000       2.922351        79.5212 
 334   0.0000       2.950865        80.2971 
 335   0.0000       2.978640        81.0529 
 336   0.0000       3.010494        81.9197 
 337   0.0000       3.033546        82.5470 
 338   0.0000       3.091554        84.1255 
 339   0.0000       3.107376        84.5560 
 340   0.0000       3.121588        84.9427 
 341   0.0000       3.137033        85.3630 
 342   0.0000       3.507062        95.4320 
 343   0.0000       3.529325        96.0378 
 344   0.0000       3.536109        96.2224 

                    ********************************
                    * MULLIKEN POPULATION ANALYSIS *
                    ********************************

-----------------------
MULLIKEN ATOMIC CHARGES
-----------------------
   0 P :    0.218608
   1 C :   -0.052512
   2 C :   -0.024159
   3 H :    0.003963
   4 C :    0.010996
   5 H :   -0.006479
   6 C :    0.002934
   7 H :   -0.004598
   8 C :    0.005788
   9 H :   -0.003014
  10 C :   -0.005209
  11 H :   -0.013672
  12 C :   -0.143442
  13 C :    0.021886
  14 H :    0.000756
  15 C :    0.005361
  16 H :    0.004427
  17 C :    0.011453
  18 H :    0.003397
  19 C :    0.011824
  20 H :   -0.001633
  21 C :    0.004192
  22 H :    0.021192
  23 C :   -0.070299
  24 C :    0.005804
  25 H :   -0.030314
  26 C :    0.007321
  27 H :   -0.006504
  28 C :    0.010097
  29 H :   -0.000129
  30 C :    0.003801
  31 H :    0.000274
  32 C :    0.008316
  33 H :   -0.000429
Sum of atomic charges:   -0.0000000

--------------------------------
MULLIKEN REDUCED ORBITAL CHARGES
--------------------------------
  0 P s       :     5.622035  s :     5.622035
      pz      :     2.962777  p :     8.989328
      px      :     2.872633
      py      :     3.153918
      dz2     :     0.045605  d :     0.170029
      dxz     :     0.028607
      dyz     :     0.019664
      dx2y2   :     0.047575
      dxy     :     0.028578
  1 C s       :     3.023682  s :     3.023682
      pz      :     0.999069  p :     2.992325
      px      :     0.985572
      py      :     1.007684
      dz2     :     0.010235  d :     0.036505
      dxz     :     0.010414
      dyz     :     0.006571
      dx2y2   :     0.004702
      dxy     :     0.004583
  2 C s       :     3.223289  s :     3.223289
      pz      :     0.899951  p :     2.767533
      px      :     0.878215
      py      :     0.989367
      dz2     :     0.008165  d :     0.033337
      dxz     :     0.011934
      dyz     :     0.003197
      dx2y2   :     0.004673
      dxy     :     0.005369
  3 H s       :     0.973071  s :     0.973071
      pz      :     0.011175  p :     0.022966
      px      :     0.006669
      py      :     0.005122
  4 C s       :     3.170350  s :     3.170350
      pz      :     0.864278  p :     2.785265
      px      :     0.937558
      py      :     0.983429
      dz2     :     0.008057  d :     0.033389
      dxz     :     0.011906
      dyz     :     0.003278
      dx2y2   :     0.004601
      dxy     :     0.005548
  5 H s       :     0.984426  s :     0.984426
      pz      :     0.010902  p :     0.022053
      px      :     0.006146
      py      :     0.005005
  6 C s       :     3.166715  s :     3.166715
      pz      :     0.962773  p :     2.797362
      px      :     0.839749
      py      :     0.994839
      dz2     :     0.010418  d :     0.032989
      dxz     :     0.009679
      dyz     :     0.006148
      dx2y2   :     0.004450
      dxy     :     0.002295
  7 H s       :     0.982531  s :     0.982531
      pz      :     0.003624  p :     0.022066
      px      :     0.013395
      py      :     0.005048
  8 C s       :     3.169992  s :     3.169992
      pz      :     0.873870  p :     2.790820
      px      :     0.932153
      py      :     0.984797
      dz2     :     0.008072  d :     0.033400
      dxz     :     0.011821
      dyz     :     0.003302
      dx2y2   :     0.004624
      dxy     :     0.005580
  9 H s       :     0.980950  s :     0.980950
      pz      :     0.010938  p :     0.022063
      px      :     0.006121
      py      :     0.005005
 10 C s       :     3.219164  s :     3.219164
      pz      :     0.883790  p :     2.752866
      px      :     0.882485
      py      :     0.986591
      dz2     :     0.007976  d :     0.033179
      dxz     :     0.012045
      dyz     :     0.003244
      dx2y2   :     0.004560
      dxy     :     0.005354
 11 H s       :     0.991352  s :     0.991352
      pz      :     0.010983  p :     0.022319
      px      :     0.006228
      py      :     0.005108
 12 C s       :     3.062585  s :     3.062585
      pz      :     1.007028  p :     3.044297
      px      :     1.019085
      py      :     1.018183
      dz2     :     0.008805  d :     0.036560
      dxz     :     0.004541
      dyz     :     0.010474
      dx2y2   :     0.006166
      dxy     :     0.006575
 13 C s       :     3.231492  s :     3.231492
      pz      :     0.853566  p :     2.713349
      px      :     0.951495
      py      :     0.908287
      dz2     :     0.007750  d :     0.033274
      dxz     :     0.005067
      dyz     :     0.011013
      dx2y2   :     0.005123
      dxy     :     0.004321
 14 H s       :     0.976914  s :     0.976914
      pz      :     0.008276  p :     0.022331
      px      :     0.004562
      py      :     0.009492
 15 C s       :     3.171980  s :     3.171980
      pz      :     0.949939  p :     2.789695
      px      :     0.963931
      py      :     0.875825
      dz2     :     0.009199  d :     0.032964
      dxz     :     0.005798
      dyz     :     0.009813
      dx2y2   :     0.003862
      dxy     :     0.004292
 16 H s       :     0.973534  s :     0.973534
      pz      :     0.004600  p :     0.022039
      px      :     0.006173
      py      :     0.011265
 17 C s       :     3.170969  s :     3.170969
      pz      :     0.861258  p :     2.784408
      px      :     0.957203
      py      :     0.965947
      dz2     :     0.008245  d :     0.033170
      dxz     :     0.003896
      dyz     :     0.008974
      dx2y2   :     0.005925
      dxy     :     0.006130
 18 H s       :     0.974632  s :     0.974632
      pz      :     0.012415  p :     0.021972
      px      :     0.005720
      py      :     0.003837
 19 C s       :     3.172146  s :     3.172146
      pz      :     0.913889  p :     2.782950
      px      :     0.983302
      py      :     0.885759
      dz2     :     0.007542  d :     0.033080
      dxz     :     0.004991
      dyz     :     0.011306
      dx2y2   :     0.005009
      dxy     :     0.004231
 20 H s       :     0.979583  s :     0.979583
      pz      :     0.007814  p :     0.022050
      px      :     0.004691
      py      :     0.009545
 21 C s       :     3.211146  s :     3.211146
      pz      :     0.909614  p :     2.750619
      px      :     0.933863
      py      :     0.907142
      dz2     :     0.009601  d :     0.034043
      dxz     :     0.006130
      dyz     :     0.009922
      dx2y2   :     0.003962
      dxy     :     0.004429
 22 H s       :     0.954109  s :     0.954109
      pz      :     0.006098  p :     0.024699
      px      :     0.006786
      py      :     0.011816
 23 C s       :     3.036088  s :     3.036088
      pz      :     0.989545  p :     2.997200
      px      :     1.045964
      py      :     0.961691
      dz2     :     0.009591  d :     0.037010
      dxz     :     0.007206
      dyz     :     0.010114
      dx2y2   :     0.005678
      dxy     :     0.004421
 24 C s       :     3.187561  s :     3.187561
      pz      :     0.885019  p :     2.772892
      px      :     0.942087
      py      :     0.945785
      dz2     :     0.008338  d :     0.033743
      dxz     :     0.005170
      dyz     :     0.007650
      dx2y2   :     0.006426
      dxy     :     0.006159
 25 H s       :     1.004556  s :     1.004556
      pz      :     0.014478  p :     0.025759
      px      :     0.005872
      py      :     0.005409
 26 C s       :     3.174039  s :     3.174039
      pz      :     0.910906  p :     2.785368
      px      :     0.975230
      py      :     0.899231
      dz2     :     0.007653  d :     0.033272
      dxz     :     0.006487
      dyz     :     0.009812
      dx2y2   :     0.005079
      dxy     :     0.004241
 27 H s       :     0.984439  s :     0.984439
      pz      :     0.007391  p :     0.022064
      px      :     0.005069
      py      :     0.009605
 28 C s       :     3.168400  s :     3.168400
      pz      :     0.955691  p :     2.788366
      px      :     0.932480
      py      :     0.900195
      dz2     :     0.009058  d :     0.033137
      dxz     :     0.006623
      dyz     :     0.009101
      dx2y2   :     0.003331
      dxy     :     0.005026
 29 H s       :     0.978117  s :     0.978117
      pz      :     0.004806  p :     0.022011
      px      :     0.007849
      py      :     0.009356
 30 C s       :     3.171299  s :     3.171299
      pz      :     0.859390  p :     2.791848
      px      :     0.965563
      py      :     0.966894
      dz2     :     0.008152  d :     0.033052
      dxz     :     0.005241
      dyz     :     0.007596
      dx2y2   :     0.006241
      dxy     :     0.005821
 31 H s       :     0.977673  s :     0.977673
      pz      :     0.012452  p :     0.022053
      px      :     0.005639
      py      :     0.003962
 32 C s       :     3.221285  s :     3.221285
      pz      :     0.925408  p :     2.736907
      px      :     0.936952
      py      :     0.874546
      dz2     :     0.007729  d :     0.033492
      dxz     :     0.006668
      dyz     :     0.009681
      dx2y2   :     0.005216
      dxy     :     0.004197
 33 H s       :     0.978210  s :     0.978210
      pz      :     0.007210  p :     0.022219
      px      :     0.005068
      py      :     0.009941


                     *******************************
                     * LOEWDIN POPULATION ANALYSIS *
                     *******************************

----------------------
LOEWDIN ATOMIC CHARGES
----------------------
   0 P :    0.503626
   1 C :   -0.167942
   2 C :   -0.046538
   3 H :    0.029869
   4 C :   -0.028097
   5 H :    0.030516
   6 C :   -0.036764
   7 H :    0.030009
   8 C :   -0.027060
   9 H :    0.031786
  10 C :   -0.036052
  11 H :    0.027827
  12 C :   -0.177612
  13 C :   -0.020394
  14 H :    0.033700
  15 C :   -0.026841
  16 H :    0.034448
  17 C :   -0.020934
  18 H :    0.033520
  19 C :   -0.029453
  20 H :    0.032087
  21 C :   -0.030877
  22 H :    0.028772
  23 C :   -0.172162
  24 C :   -0.033966
  25 H :    0.025608
  26 C :   -0.028297
  27 H :    0.030832
  28 C :   -0.025428
  29 H :    0.032008
  30 C :   -0.029394
  31 H :    0.032787
  32 C :   -0.028234
  33 H :    0.028651

-------------------------------
LOEWDIN REDUCED ORBITAL CHARGES
-------------------------------
  0 P s       :     5.201827  s :     5.201827
      pz      :     2.998041  p :     9.059140
      px      :     2.891887
      py      :     3.169212
      dz2     :     0.063964  d :     0.235407
      dxz     :     0.037722
      dyz     :     0.028864
      dx2y2   :     0.067831
      dxy     :     0.037026
  1 C s       :     2.906202  s :     2.906202
      pz      :     1.094363  p :     3.166717
      px      :     1.074791
      py      :     0.997563
      dz2     :     0.029592  d :     0.095022
      dxz     :     0.031264
      dyz     :     0.014343
      dx2y2   :     0.011205
      dxy     :     0.008619
  2 C s       :     2.863858  s :     2.863858
      pz      :     1.047305  p :     3.091232
      px      :     1.063240
      py      :     0.980687
      dz2     :     0.023817  d :     0.091447
      dxz     :     0.035397
      dyz     :     0.006432
      dx2y2   :     0.014222
      dxy     :     0.011579
  3 H s       :     0.900488  s :     0.900488
      pz      :     0.034478  p :     0.069643
      px      :     0.020182
      py      :     0.014982
  4 C s       :     2.864077  s :     2.864077
      pz      :     1.045190  p :     3.073566
      px      :     1.062113
      py      :     0.966263
      dz2     :     0.023440  d :     0.090453
      dxz     :     0.034581
      dyz     :     0.006556
      dx2y2   :     0.013801
      dxy     :     0.012075
  5 H s       :     0.902860  s :     0.902860
      pz      :     0.033421  p :     0.066624
      px      :     0.018838
      py      :     0.014365
  6 C s       :     2.863431  s :     2.863431
      pz      :     1.068770  p :     3.083877
      px      :     1.037245
      py      :     0.977862
[...]
      dxy     :     0.003523
 22 H s       :     0.962109  s :     0.962109
      pz      :     0.004720  p :     0.022615
      px      :     0.012024
      py      :     0.005872
 23 C s       :     3.097163  s :     3.097163
      pz      :     1.018772  p :     3.026799
      px      :     1.018350
      py      :     0.989678
      dz2     :     0.009201  d :     0.033880
      dxz     :     0.006564
      dyz     :     0.009362
      dx2y2   :     0.004753
      dxy     :     0.003999
 24 C s       :     3.235197  s :     3.235197
      pz      :     0.845245  p :     2.730490
      px      :     0.963917
      py      :     0.921328
      dz2     :     0.009023  d :     0.031691
      dxz     :     0.003707
      dyz     :     0.007775
      dx2y2   :     0.005684
      dxy     :     0.005502
 25 H s       :     0.962114  s :     0.962114
      pz      :     0.014139  p :     0.022637
      px      :     0.004530
      py      :     0.003967
 26 C s       :     3.177121  s :     3.177121
      pz      :     0.920400  p :     2.787412
      px      :     0.966012
      py      :     0.901000
      dz2     :     0.008356  d :     0.031807
      dxz     :     0.006426
      dyz     :     0.010015
      dx2y2   :     0.003358
      dxy     :     0.003652
 27 H s       :     0.974835  s :     0.974835
      pz      :     0.006040  p :     0.021664
      px      :     0.006069
      py      :     0.009554
 28 C s       :     3.176428  s :     3.176428
      pz      :     0.935500  p :     2.789394
      px      :     0.956015
      py      :     0.897878
      dz2     :     0.008352  d :     0.031733
      dxz     :     0.006450
      dyz     :     0.009939
      dx2y2   :     0.003267
      dxy     :     0.003725
 29 H s       :     0.972985  s :     0.972985
      pz      :     0.005868  p :     0.021654
      px      :     0.006362
      py      :     0.009424
 30 C s       :     3.176978  s :     3.176978
      pz      :     0.848444  p :     2.792341
      px      :     0.981104
      py      :     0.962793
      dz2     :     0.009102  d :     0.031775
      dxz     :     0.003705
      dyz     :     0.007771
      dx2y2   :     0.005759
      dxy     :     0.005437
 31 H s       :     0.972634  s :     0.972634
      pz      :     0.013328  p :     0.021706
      px      :     0.004567
      py      :     0.003811
 32 C s       :     3.216445  s :     3.216445
      pz      :     0.923485  p :     2.738438
      px      :     0.945798
      py      :     0.869155
      dz2     :     0.008272  d :     0.031719
      dxz     :     0.006376
      dyz     :     0.009954
      dx2y2   :     0.003506
      dxy     :     0.003612
 33 H s       :     0.972873  s :     0.972873
      pz      :     0.005974  p :     0.021844
      px      :     0.005962
      py      :     0.009908


                     *******************************
                     * LOEWDIN POPULATION ANALYSIS *
                     *******************************

----------------------
LOEWDIN ATOMIC CHARGES
----------------------
   0 P :    0.501961
   1 C :   -0.173121
   2 C :   -0.033359
   3 H :    0.031281
   4 C :   -0.031290
   5 H :    0.033882
   6 C :   -0.029724
   7 H :    0.033033
   8 C :   -0.030955
   9 H :    0.033434
  10 C :   -0.036006
  11 H :    0.034940
  12 C :   -0.173229
  13 C :   -0.033261
  14 H :    0.031287
  15 C :   -0.031319
  16 H :    0.033927
  17 C :   -0.029350
  18 H :    0.033108
  19 C :   -0.031032
  20 H :    0.033485
  21 C :   -0.035329
  22 H :    0.034985
  23 C :   -0.173249
  24 C :   -0.035416
  25 H :    0.034956
  26 C :   -0.030955
  27 H :    0.033463
  28 C :   -0.029545
  29 H :    0.033073
  30 C :   -0.031389
  31 H :    0.033892
  32 C :   -0.033497
  33 H :    0.031317

-------------------------------
LOEWDIN REDUCED ORBITAL CHARGES
-------------------------------
  0 P s       :     5.288787  s :     5.288787
      pz      :     2.893625  p :     8.984966
      px      :     2.831404
      py      :     3.259937
      dz2     :     0.061577  d :     0.224287
      dxz     :     0.038797
      dyz     :     0.036765
      dx2y2   :     0.050524
      dxy     :     0.036623
  1 C s       :     2.926224  s :     2.926224
      pz      :     0.998895  p :     3.159615
      px      :     1.076525
      py      :     1.084195
      dz2     :     0.007593  d :     0.087282
      dxz     :     0.007116
      dyz     :     0.013351
      dx2y2   :     0.027846
      dxy     :     0.031376
  2 C s       :     2.877128  s :     2.877128
      pz      :     0.968975  p :     3.069544
      px      :     1.062726
      py      :     1.037843
      dz2     :     0.006148  d :     0.086688
      dxz     :     0.013366
      dyz     :     0.006012
      dx2y2   :     0.030774
      dxy     :     0.030389
  3 H s       :     0.902118  s :     0.902118
      pz      :     0.015133  p :     0.066600
      px      :     0.014583
      py      :     0.036884
  4 C s       :     2.873179  s :     2.873179
      pz      :     0.974424  p :     3.072166
      px      :     1.054346
      py      :     1.043396
      dz2     :     0.006080  d :     0.085945
      dxz     :     0.011072
      dyz     :     0.008559
      dx2y2   :     0.027726
      dxy     :     0.032508
  5 H s       :     0.900354  s :     0.900354
      pz      :     0.015244  p :     0.065764
      px      :     0.022937
      py      :     0.027583
  6 C s       :     2.874024  s :     2.874024
      pz      :     0.973369  p :     3.070097
      px      :     1.038803
      py      :     1.057926
      dz2     :     0.007072  d :     0.085603
      dxz     :     0.005863
      dyz     :     0.013380
      dx2y2   :     0.031741
      dxy     :     0.027546
  7 H s       :     0.901101  s :     0.901101
      pz      :     0.013632  p :     0.065866
      px      :     0.040247
      py      :     0.011987
  8 C s       :     2.873517  s :     2.873517
      pz      :     0.974024  p :     3.071400
      px      :     1.061965
      py      :     1.035412
      dz2     :     0.006089  d :     0.086038
      dxz     :     0.013580
      dyz     :     0.006243
      dx2y2   :     0.030347
      dxy     :     0.029778
  9 H s       :     0.900768  s :     0.900768
      pz      :     0.015432  p :     0.065798
      px      :     0.014447
      py      :     0.035919
 10 C s       :     2.877133  s :     2.877133
      pz      :     0.972375  p :     3.072280
      px      :     1.055926
      py      :     1.043979
      dz2     :     0.006118  d :     0.086592
      dxz     :     0.011230
      dyz     :     0.008386
      dx2y2   :     0.027820
      dxy     :     0.033038
 11 H s       :     0.896571  s :     0.896571
      pz      :     0.015392  p :     0.068489
      px      :     0.024982
      py      :     0.028115
 12 C s       :     2.926232  s :     2.926232
      pz      :     1.079528  p :     3.159693
      px      :     1.064699
      py      :     1.015465
      dz2     :     0.021384  d :     0.087305
      dxz     :     0.023498
      dyz     :     0.013668
      dx2y2   :     0.014153
      dxy     :     0.014601
 13 C s       :     2.877303  s :     2.877303
      pz      :     1.050430  p :     3.069247
      px      :     1.036141
      py      :     0.982677
      dz2     :     0.021896  d :     0.086711
      dxz     :     0.029336
      dyz     :     0.014392
      dx2y2   :     0.009657
      dxy     :     0.011430
 14 H s       :     0.902093  s :     0.902093
      pz      :     0.025225  p :     0.066620
      px      :     0.021722
      py      :     0.019672
 15 C s       :     2.873217  s :     2.873217
      pz      :     1.059328  p :     3.072190
      px      :     1.025380
      py      :     0.987483
      dz2     :     0.026904  d :     0.085912
      dxz     :     0.025763
      dyz     :     0.016500
      dx2y2   :     0.008034
      dxy     :     0.008711
 16 H s       :     0.900301  s :     0.900301
      pz      :     0.013213  p :     0.065772
      px      :     0.035073
      py      :     0.017486
 17 C s       :     2.874084  s :     2.874084
      pz      :     1.036375  p :     3.069662
      px      :     1.045157
      py      :     0.988129
      dz2     :     0.022619  d :     0.085604
      dxz     :     0.024906
      dyz     :     0.009606
      dx2y2   :     0.013935
      dxy     :     0.014538
 18 H s       :     0.901031  s :     0.901031
      pz      :     0.038439  p :     0.065861
      px      :     0.014126
      py      :     0.013295
 19 C s       :     2.873563  s :     2.873563
      pz      :     1.048606  p :     3.071452
      px      :     1.037778
      py      :     0.985067
      dz2     :     0.022331  d :     0.086017
      dxz     :     0.028986
      dyz     :     0.013464
      dx2y2   :     0.009836
      dxy     :     0.011401
 20 H s       :     0.900711  s :     0.900711
      pz      :     0.024636  p :     0.065804
      px      :     0.021960
      py      :     0.019208
 21 C s       :     2.877247  s :     2.877247
      pz      :     1.058410  p :     3.071459
      px      :     1.033993
      py      :     0.979056
      dz2     :     0.027858  d :     0.086623
      dxz     :     0.025699
      dyz     :     0.016554
      dx2y2   :     0.007866
      dxy     :     0.008645
 22 H s       :     0.896585  s :     0.896585
      pz      :     0.014015  p :     0.068430
      px      :     0.036878
      py      :     0.017537
 23 C s       :     2.926199  s :     2.926199
      pz      :     1.080570  p :     3.159762
      px      :     1.015694
      py      :     1.063497
      dz2     :     0.026997  d :     0.087288
      dxz     :     0.015074
      dyz     :     0.025119
      dx2y2   :     0.010439
      dxy     :     0.009660
 24 C s       :     2.877131  s :     2.877131
      pz      :     1.046597  p :     3.071673
      px      :     0.987857
      py      :     1.037219
      dz2     :     0.024997  d :     0.086612
      dxz     :     0.009273
      dyz     :     0.023297
      dx2y2   :     0.013759
      dxy     :     0.015285
 25 H s       :     0.896545  s :     0.896545
      pz      :     0.043701  p :     0.068499
      px      :     0.013267
      py      :     0.011531
 26 C s       :     2.873514  s :     2.873514
      pz      :     1.058489  p :     3.071407
      px      :     0.985433
      py      :     1.027485
      dz2     :     0.025524  d :     0.086034
      dxz     :     0.015718
      dyz     :     0.028150
      dx2y2   :     0.007359
      dxy     :     0.009282
 27 H s       :     0.900738  s :     0.900738
      pz      :     0.018738  p :     0.065799
      px      :     0.017851
      py      :     0.029209
 28 C s       :     2.874059  s :     2.874059
      pz      :     1.060097  p :     3.069881
      px      :     0.982930
      py      :     1.026854
      dz2     :     0.025448  d :     0.085605
      dxz     :     0.015639
      dyz     :     0.028001
      dx2y2   :     0.007242
      dxy     :     0.009276
 29 H s       :     0.901062  s :     0.901062
      pz      :     0.018222  p :     0.065865
      px      :     0.018776
      py      :     0.028867
 30 C s       :     2.873198  s :     2.873198
      pz      :     1.037688  p :     3.072257
      px      :     0.989970
      py      :     1.044599
      dz2     :     0.024754  d :     0.085934
      dxz     :     0.009210
      dyz     :     0.023432
      dx2y2   :     0.013863
      dxy     :     0.014675
 31 H s       :     0.900341  s :     0.900341
      pz      :     0.041127  p :     0.065767
      px      :     0.013184
      py      :     0.011456
 32 C s       :     2.877258  s :     2.877258
      pz      :     1.057196  p :     3.069539
      px      :     0.980001
      py      :     1.032341
      dz2     :     0.025467  d :     0.086700
      dxz     :     0.015835
      dyz     :     0.028536
      dx2y2   :     0.007824
      dxy     :     0.009038
 33 H s       :     0.902078  s :     0.902078
      pz      :     0.018668  p :     0.066605
      px      :     0.017744
      py      :     0.030193


                      *****************************
                      * MAYER POPULATION ANALYSIS *
                      *****************************

  NA   - Mulliken gross atomic population
  ZA   - Total nuclear charge
  QA   - Mulliken gross atomic charge
  VA   - Mayer's total valence
  BVA  - Mayer's bonded valence
  FA   - Mayer's free valence

  ATOM       NA         ZA         QA         VA         BVA        FA
  0 P     14.6961    15.0000     0.3039     2.9997     2.9997    -0.0000
  1 C      6.1569     6.0000    -0.1569     3.8403     3.8403    -0.0000
  2 C      5.9859     6.0000     0.0141     3.8672     3.8672    -0.0000
  3 H      0.9949     1.0000     0.0051     0.9905     0.9905    -0.0000
  4 C      6.0012     6.0000    -0.0012     3.8597     3.8597     0.0000
  5 H      0.9944     1.0000     0.0056     0.9789     0.9789    -0.0000
  6 C      5.9976     6.0000     0.0024     3.8270     3.8270    -0.0000
  7 H      0.9947     1.0000     0.0053     0.9788     0.9788    -0.0000
  8 C      5.9964     6.0000     0.0036     3.8367     3.8367     0.0000
  9 H      0.9966     1.0000     0.0034     0.9788     0.9788    -0.0000
 10 C      5.9986     6.0000     0.0014     3.8836     3.8836    -0.0000
 11 H      0.9843     1.0000     0.0157     0.9912     0.9912    -0.0000
 12 C      6.1583     6.0000    -0.1583     3.8410     3.8410    -0.0000
 13 C      5.9857     6.0000     0.0143     3.8664     3.8664     0.0000
 14 H      0.9948     1.0000     0.0052     0.9907     0.9907     0.0000
 15 C      6.0011     6.0000    -0.0011     3.8586     3.8586     0.0000
 16 H      0.9942     1.0000     0.0058     0.9790     0.9790    -0.0000
 17 C      5.9975     6.0000     0.0025     3.8270     3.8270     0.0000
 18 H      0.9945     1.0000     0.0055     0.9788     0.9788    -0.0000
 19 C      5.9965     6.0000     0.0035     3.8368     3.8368     0.0000
 20 H      0.9964     1.0000     0.0036     0.9788     0.9788    -0.0000
 21 C      5.9970     6.0000     0.0030     3.8818     3.8818    -0.0000
 22 H      0.9847     1.0000     0.0153     0.9914     0.9914    -0.0000
 23 C      6.1578     6.0000    -0.1578     3.8399     3.8399     0.0000
 24 C      5.9974     6.0000     0.0026     3.8831     3.8831     0.0000
 25 H      0.9848     1.0000     0.0152     0.9915     0.9915     0.0000
 26 C      5.9963     6.0000     0.0037     3.8369     3.8369     0.0000
 27 H      0.9965     1.0000     0.0035     0.9788     0.9788    -0.0000
 28 C      5.9976     6.0000     0.0024     3.8269     3.8269     0.0000
 29 H      0.9946     1.0000     0.0054     0.9788     0.9788    -0.0000
 30 C      6.0011     6.0000    -0.0011     3.8592     3.8592    -0.0000
 31 H      0.9943     1.0000     0.0057     0.9789     0.9789    -0.0000
 32 C      5.9866     6.0000     0.0134     3.8676     3.8676    -0.0000
 33 H      0.9947     1.0000     0.0053     0.9906     0.9906    -0.0000

  Mayer bond orders larger than 0.100000
B(  0-P ,  1-C ) :   0.9354 B(  0-P , 12-C ) :   0.9367 B(  0-P , 23-C ) :   0.9357 
B(  1-C ,  2-C ) :   1.3601 B(  1-C , 10-C ) :   1.3839 B(  2-C ,  3-H ) :   0.9708 
B(  2-C ,  4-C ) :   1.4072 B(  4-C ,  5-H ) :   0.9754 B(  4-C ,  6-C ) :   1.3740 
B(  6-C ,  7-H ) :   0.9755 B(  6-C ,  8-C ) :   1.3808 B(  8-C ,  9-H ) :   0.9743 
B(  8-C , 10-C ) :   1.3827 B( 10-C , 11-H ) :   0.9676 B( 12-C , 13-C ) :   1.3616 
B( 12-C , 21-C ) :   1.3816 B( 13-C , 14-H ) :   0.9710 B( 13-C , 15-C ) :   1.4054 
B( 15-C , 16-H ) :   0.9755 B( 15-C , 17-C ) :   1.3749 B( 17-C , 18-H ) :   0.9755 
B( 17-C , 19-C ) :   1.3800 B( 19-C , 20-H ) :   0.9744 B( 19-C , 21-C ) :   1.3836 
B( 21-C , 22-H ) :   0.9678 B( 23-C , 24-C ) :   1.3830 B( 23-C , 32-C ) :   1.3606 
B( 24-C , 25-H ) :   0.9676 B( 24-C , 26-C ) :   1.3834 B( 26-C , 27-H ) :   0.9743 
B( 26-C , 28-C ) :   1.3804 B( 28-C , 29-H ) :   0.9755 B( 28-C , 30-C ) :   1.3743 
B( 30-C , 31-H ) :   0.9755 B( 30-C , 32-C ) :   1.4065 B( 32-C , 33-H ) :   0.9709 


-------
TIMINGS
-------

Total SCF time: 0 days 0 hours 0 min 23 sec 

Total time                  ....      23.072 sec
Sum of individual times     ....      22.658 sec  ( 98.2%)

Fock matrix formation       ....      20.137 sec  ( 87.3%)
  Split-RI-J                ....       7.345 sec  ( 36.5% of F)
  XC integration            ....      12.774 sec  ( 63.4% of F)
    Basis function eval.    ....       3.896 sec  ( 30.5% of XC)
    Density eval.           ....       6.003 sec  ( 47.0% of XC)
    XC-Functional eval.     ....       0.555 sec  (  4.3% of XC)
    XC-Potential eval.      ....       1.793 sec  ( 14.0% of XC)
Diagonalization             ....       0.048 sec  (  0.2%)
Density matrix formation    ....       0.013 sec  (  0.1%)
Population analysis         ....       0.064 sec  (  0.3%)
Initial guess               ....       0.038 sec  (  0.2%)
Orbital Transformation      ....       0.000 sec  (  0.0%)
Orbital Orthonormalization  ....       0.033 sec  (  0.1%)
DIIS solution               ....       0.018 sec  (  0.1%)
SOSCF solution              ....       0.226 sec  (  1.0%)
Grid generation             ....       2.114 sec  (  9.2%)

Maximum memory used throughout the entire SCF-calculation: 115.2 MB

-------------------------   --------------------
FINAL SINGLE POINT ENERGY     -1035.728769211810
-------------------------   --------------------

                                *** OPTIMIZATION RUN DONE ***

                            ***************************************
                            *     ORCA property calculations      *
                            ***************************************

                                    ---------------------
                                    Active property flags
                                    ---------------------
   (+) Dipole Moment


------------------------------------------------------------------------------
                       ORCA ELECTRIC PROPERTIES CALCULATION
------------------------------------------------------------------------------

Dipole Moment Calculation                       ... on
Quadrupole Moment Calculation                   ... off
Polarizability Calculation                      ... off
GBWName                                         ... PPh3_opt.gbw
Electron density                                ... PPh3_opt.scfp
The origin for moment calculation is the CENTER OF MASS  = (-3.215972,  3.556263  1.080884)

-------------
DIPOLE MOMENT
-------------
                                X             Y             Z
Electronic contribution:     -1.21712       4.67717      -2.10598
Nuclear contribution   :      1.32806      -5.12429       2.31268
                        -----------------------------------------
Total Dipole Moment    :      0.11095      -0.44712       0.20670
                        -----------------------------------------
Magnitude (a.u.)       :      0.50493
Magnitude (Debye)      :      1.28343



--------------------
Rotational spectrum 
--------------------
 
Rotational constants in cm-1:     0.011627     0.011623     0.006846 
Rotational constants in MHz :   348.567632   348.441620   205.234500 

 Dipole components along the rotational axes: 
x,y,z [a.u.] :     0.006795    -0.002596     0.504878 
x,y,z [Debye]:     0.017271    -0.006597     1.283297 

 

Timings for individual modules:

Sum of individual times         ...     1277.458 sec (=  21.291 min)
GTO integral calculation        ...        7.373 sec (=   0.123 min)   0.6 %
SCF iterations                  ...      814.168 sec (=  13.569 min)  63.7 %
SCF Gradient evaluation         ...      453.569 sec (=   7.559 min)  35.5 %
Geometry relaxation             ...        2.348 sec (=   0.039 min)   0.2 %
                             ****ORCA TERMINATED NORMALLY****
TOTAL RUN TIME: 0 days 0 hours 21 minutes 20 seconds 121 msec
