
                                 *****************
                                 * O   R   C   A *
                                 *****************

                                            #,                                       
                                            ###                                      
                                            ####                                     
                                            #####                                    
                                            ######                                   
                                           ########,                                 
                                     ,,################,,,,,                         
                               ,,#################################,,                 
                          ,,##########################################,,             
                       ,#########################################, ''#####,          
                    ,#############################################,,   '####,        
                  ,##################################################,,,,####,       
                ,###########''''           ''''###############################       
              ,#####''   ,,,,##########,,,,          '''####'''          '####       
            ,##' ,,,,###########################,,,                        '##       
           ' ,,###''''                  '''############,,,                           
         ,,##''                                '''############,,,,        ,,,,,,###''
      ,#''                                            '''#######################'''  
     '                                                          ''''####''''         
             ,#######,   #######,   ,#######,      ##                                
            ,#'     '#,  ##    ##  ,#'     '#,    #''#        ######   ,####,        
            ##       ##  ##   ,#'  ##            #'  '#       #        #'  '#        
            ##       ##  #######   ##           ,######,      #####,   #    #        
            '#,     ,#'  ##    ##  '#,     ,#' ,#      #,         ##   #,  ,#        
             '#######'   ##     ##  '#######'  #'      '#     #####' # '####'        



                  #######################################################
                  #                        -***-                        #
                  #          Department of theory and spectroscopy      #
                  #    Directorship and core code : Frank Neese         #
                  #        Max Planck Institute fuer Kohlenforschung    #
                  #                Kaiser Wilhelm Platz 1               #
                  #                 D-45470 Muelheim/Ruhr               #
                  #                      Germany                        #
                  #                                                     #
                  #                  All rights reserved                #
                  #                        -***-                        #
                  #######################################################



                         Program Version 5.0.4 -  RELEASE  -

 With contributions from (in alphabetic order):
   Daniel Aravena         : Magnetic Suceptibility
   Michael Atanasov       : Ab Initio Ligand Field Theory (pilot matlab implementation)
   Alexander A. Auer      : GIAO ZORA, VPT2 properties, NMR spectrum
   Ute Becker             : Parallelization
   Giovanni Bistoni       : ED, misc. LED, open-shell LED, HFLD
   Martin Brehm           : Molecular dynamics
   Dmytro Bykov           : SCF Hessian
   Vijay G. Chilkuri      : MRCI spin determinant printing, contributions to CSF-ICE
   Dipayan Datta          : RHF DLPNO-CCSD density
   Achintya Kumar Dutta   : EOM-CC, STEOM-CC
   Dmitry Ganyushin       : Spin-Orbit,Spin-Spin,Magnetic field MRCI
   Miquel Garcia          : C-PCM and meta-GGA Hessian, CC/C-PCM, Gaussian charge scheme
   Yang Guo               : DLPNO-NEVPT2, F12-NEVPT2, CIM, IAO-localization
   Andreas Hansen         : Spin unrestricted coupled pair/coupled cluster methods
   Benjamin Helmich-Paris : MC-RPA, TRAH-SCF, COSX integrals
   Lee Huntington         : MR-EOM, pCC
   Robert Izsak           : Overlap fitted RIJCOSX, COSX-SCS-MP3, EOM
   Marcus Kettner         : VPT2
   Christian Kollmar      : KDIIS, OOCD, Brueckner-CCSD(T), CCSD density, CASPT2, CASPT2-K
   Simone Kossmann        : Meta GGA functionals, TD-DFT gradient, OOMP2, MP2 Hessian
   Martin Krupicka        : Initial AUTO-CI
   Lucas Lang             : DCDCAS
   Marvin Lechner         : AUTO-CI (C++ implementation), FIC-MRCC
   Dagmar Lenk            : GEPOL surface, SMD
   Dimitrios Liakos       : Extrapolation schemes; Compound Job, initial MDCI parallelization
   Dimitrios Manganas     : Further ROCIS development; embedding schemes
   Dimitrios Pantazis     : SARC Basis sets
   Anastasios Papadopoulos: AUTO-CI, single reference methods and gradients
   Taras Petrenko         : DFT Hessian,TD-DFT gradient, ASA, ECA, R-Raman, ABS, FL, XAS/XES, NRVS
   Peter Pinski           : DLPNO-MP2, DLPNO-MP2 Gradient
   Christoph Reimann      : Effective Core Potentials
   Marius Retegan         : Local ZFS, SOC
   Christoph Riplinger    : Optimizer, TS searches, QM/MM, DLPNO-CCSD(T), (RO)-DLPNO pert. Triples
   Tobias Risthaus        : Range-separated hybrids, TD-DFT gradient, RPA, STAB
   Michael Roemelt        : Original ROCIS implementation
   Masaaki Saitow         : Open-shell DLPNO-CCSD energy and density
   Barbara Sandhoefer     : DKH picture change effects
   Avijit Sen             : IP-ROCIS
   Kantharuban Sivalingam : CASSCF convergence, NEVPT2, FIC-MRCI
   Bernardo de Souza      : ESD, SOC TD-DFT
   Georgi Stoychev        : AutoAux, RI-MP2 NMR, DLPNO-MP2 response
   Willem Van den Heuvel  : Paramagnetic NMR
   Boris Wezisla          : Elementary symmetry handling
   Frank Wennmohs         : Technical directorship


 We gratefully acknowledge several colleagues who have allowed us to
 interface, adapt or use parts of their codes:
   Stefan Grimme, W. Hujo, H. Kruse, P. Pracht,  : VdW corrections, initial TS optimization,
                  C. Bannwarth, S. Ehlert          DFT functionals, gCP, sTDA/sTD-DF
   Ed Valeev, F. Pavosevic, A. Kumar             : LibInt (2-el integral package), F12 methods
   Garnet Chan, S. Sharma, J. Yang, R. Olivares  : DMRG
   Ulf Ekstrom                                   : XCFun DFT Library
   Mihaly Kallay                                 : mrcc  (arbitrary order and MRCC methods)
   Jiri Pittner, Ondrej Demel                    : Mk-CCSD
   Frank Weinhold                                : gennbo (NPA and NBO analysis)
   Christopher J. Cramer and Donald G. Truhlar   : smd solvation model
   Lars Goerigk                                  : TD-DFT with DH, B97 family of functionals
   V. Asgeirsson, H. Jonsson                     : NEB implementation
   FAccTs GmbH                                   : IRC, NEB, NEB-TS, DLPNO-Multilevel, CI-OPT
                                                   MM, QMMM, 2- and 3-layer-ONIOM, Crystal-QMMM,
                                                   LR-CPCM, SF, NACMEs, symmetry and pop. for TD-DFT,
                                                   nearIR, NL-DFT gradient (VV10), updates on ESD,
                                                   ML-optimized integration grids
   S Lehtola, MJT Oliveira, MAL Marques          : LibXC Library
   Liviu Ungur et al                             : ANISO software


 Your calculation uses the libint2 library for the computation of 2-el integrals
 For citations please refer to: http://libint.valeyev.net

 Your ORCA version has been built with support for libXC version: 5.1.0
 For citations please refer to: https://tddft.org/programs/libxc/

 This ORCA versions uses:
   CBLAS   interface :  Fast vector & matrix operations
   LAPACKE interface :  Fast linear algebra routines
   Shared memory     :  Shared parallel matrices


================================================================================

----- Orbital basis set information -----
Your calculation utilizes the basis: def2-SVP
   F. Weigend and R. Ahlrichs, Phys. Chem. Chem. Phys. 7, 3297 (2005).

----- AuxJ basis set information -----
Your calculation utilizes the auxiliary basis: def2/J
   F. Weigend, Phys. Chem. Chem. Phys. 8, 1057 (2006).

================================================================================
                                        WARNINGS
                       Please study these warnings very carefully!
================================================================================


INFO   : the flag for use of the SHARK integral package has been found!

================================================================================
                                       INPUT FILE
================================================================================
NAME = H2O_sp.inp
|  1> !B3LYP DEF2-SVP LARGEPRINT
|  2> * xyz 0 1
|  3> O         -3.56626        1.77639        0.00000
|  4> H         -2.59626        1.77639        0.00000
|  5> H         -3.88959        1.36040       -0.81444
|  6> *
|  7> %elprop
|  8> Polar 1
|  9> endd                         ****END OF INPUT****
================================================================================

                       ****************************
                       * Single Point Calculation *
                       ****************************

---------------------------------
CARTESIAN COORDINATES (ANGSTROEM)
---------------------------------
  O     -3.566260    1.776390    0.000000
  H     -2.596260    1.776390    0.000000
  H     -3.889590    1.360400   -0.814440

----------------------------
CARTESIAN COORDINATES (A.U.)
----------------------------
  NO LB      ZA    FRAG     MASS         X           Y           Z
   0 O     8.0000    0    15.999   -6.739255    3.356891    0.000000
   1 H     1.0000    0     1.008   -4.906220    3.356891    0.000000
   2 H     1.0000    0     1.008   -7.350260    2.570783   -1.539069

--------------------------------
INTERNAL COORDINATES (ANGSTROEM)
--------------------------------
 O      0   0   0     0.000000000000     0.00000000     0.00000000
 H      1   0   0     0.970000000000     0.00000000     0.00000000
 H      1   2   0     0.970001279690   109.47098507     0.00000000

---------------------------
INTERNAL COORDINATES (A.U.)
---------------------------
 O      0   0   0     0.000000000000     0.00000000     0.00000000
 H      1   0   0     1.833034349904     0.00000000     0.00000000
 H      1   2   0     1.833036768167   109.47098507     0.00000000

---------------------
BASIS SET INFORMATION
---------------------
There are 2 groups of distinct atoms

 Group   1 Type O   : 7s4p1d contracted to 3s2p1d pattern {511/31/1}
 Group   2 Type H   : 4s1p contracted to 2s1p pattern {31/1}

Atom   0O    basis set group =>   1
Atom   1H    basis set group =>   2
Atom   2H    basis set group =>   2

-------------------------
BASIS SET IN INPUT FORMAT
-------------------------

 # Basis set for element : H 
 NewGTO H 
 S 3 
   1      13.0107010000      0.0334854848
   2       1.9622572000      0.2347218709
   3       0.4445379600      0.8137702853
 S 1 
   1       0.1219496200      1.0000000000
 P 1 
   1       0.8000000000      1.0000000000
  end;

 # Basis set for element : O 
 NewGTO O 
 S 5 
   1    2266.1767785000     -0.0053893504
   2     340.8701019100     -0.0402347214
   3      77.3631351670     -0.1800818421
   4      21.4796449400     -0.4682885766
   5       6.6589433124     -0.4469261716
 S 1 
   1       0.8097597567      1.0000000000
 S 1 
   1       0.2553077223      1.0000000000
 P 3 
   1      17.7215043170      0.0626302488
   2       3.8635505440      0.3333113849
   3       1.0480920883      0.7414863830
 P 1 
   1       0.2764154441      1.0000000000
 D 1 
   1       1.2000000000      1.0000000000
  end;

---------------------------------
AUXILIARY/J BASIS SET INFORMATION
---------------------------------
There are 2 groups of distinct atoms

 Group   1 Type O   : 12s5p4d2f1g contracted to 6s4p3d1f1g pattern {711111/2111/211/2/1}
 Group   2 Type H   : 5s2p1d contracted to 3s1p1d pattern {311/2/1}

Atom   0O    basis set group =>   1
Atom   1H    basis set group =>   2
Atom   2H    basis set group =>   2

-------------------------------------
AUXILIARY/J BASIS SET IN INPUT FORMAT
-------------------------------------

 # Auxiliary/J basis set for element : H 
 NewAuxJGTO H 
 S 3 
   1      15.6752927000      0.1007184237
   2       3.6063578000      0.3404257499
   3       1.2080016000      0.6491996172
 S 1 
   1       0.4726794000      1.0000000000
 S 1 
   1       0.2018100000      1.0000000000
 P 2 
   1       2.0281365000      0.5596620919
   2       0.5358730000      0.5596620919
 D 1 
   1       2.2165124000      1.0000000000
  end;

 # Auxiliary/J basis set for element : O 
 NewAuxJGTO O 
 S 7 
   1    2876.8216605000      0.0168151159
   2    1004.7443032000      0.0340137548
   3     369.7579954000      0.1194951309
   4     142.9442404000      0.2664627624
   5      57.8366425000      0.4202764046
   6      24.3864983000      0.2765077335
   7      10.6622662000      0.0057008815
 S 1 
   1       4.8070437000     -1.0000000000
 S 1 
   1       2.2210770000      1.0000000000
 S 1 
   1       1.0447795000      1.0000000000
 S 1 
   1       0.4968425000      1.0000000000
 S 1 
   1       0.2371384000      1.0000000000
 P 2 
   1      64.2613382000     -0.2731534179
   2      16.3006076000     -0.8168011598
 P 1 
   1       4.3550542000      1.0000000000
 P 1 
   1       1.2019554000      1.0000000000
 P 1 
   1       0.3354196000      1.0000000000
 D 2 
   1       9.2146611000     -0.4661230638
   2       2.8435251000     -0.6600908911
 D 1 
   1       0.9955759000     -1.0000000000
 D 1 
   1       0.3649441000     -1.0000000000
 F 2 
   1       2.6420115000      0.5931563945
   2       0.7345613000      0.5931563945
 G 1 
   1       1.3931000000     -1.0000000000
  end;

------------------------------------------------------------------------------
                           ORCA GTO INTEGRAL CALCULATION
                           -- RI-GTO INTEGRALS CHOSEN --
------------------------------------------------------------------------------
------------------------------------------------------------------------------
                   ___                                                        
                  /   \      - P O W E R E D   B Y -                         
                 /     \                                                     
                 |  |  |   _    _      __       _____    __    __             
                 |  |  |  | |  | |    /  \     |  _  \  |  |  /  |          
                  \  \/   | |  | |   /    \    | | | |  |  | /  /          
                 / \  \   | |__| |  /  /\  \   | |_| |  |  |/  /          
                |  |  |   |  __  | /  /__\  \  |    /   |      \           
                |  |  |   | |  | | |   __   |  |    \   |  |\   \          
                \     /   | |  | | |  |  |  |  | |\  \  |  | \   \       
                 \___/    |_|  |_| |__|  |__|  |_| \__\ |__|  \__/        
                                                                              
                      - O R C A' S   B I G   F R I E N D -                    
                                      &                                       
                       - I N T E G R A L  F E E D E R -                       
                                                                              
 v1 FN, 2020, v2 2021                                                         
------------------------------------------------------------------------------


Reading SHARK input file H2O_sp.SHARKINP.tmp ... SHARK General Contraction Test:  Segmented basis detected
   -> Pre-screening matrix *NOT* found on disk - recalculating with NShells=12
   -> Leaving CheckPreScreeningMatrix
ok
----------------------
SHARK INTEGRAL PACKAGE
----------------------

Number of atoms                             ...      3
Number of basis functions                   ...     24
Number of shells                            ...     12
Maximum angular momentum                    ...      2
Integral batch strategy                     ... SHARK/LIBINT Hybrid
RI-J (if used) integral strategy            ... SPLIT-RIJ (Revised 2003 algorithm where possible)
Printlevel                                  ...      2
Contraction scheme used                     ... SEGMENTED contraction
Coulomb Range Separation                    ... NOT USED
Exchange Range Separation                   ... NOT USED
Finite Nucleus Model                        ... NOT USED
Auxiliary Coulomb fitting basis             ... AVAILABLE
   # of basis functions in Aux-J            ...     71
   # of shells in Aux-J                     ...     25
   Maximum angular momentum in Aux-J        ...      4
Auxiliary J/K fitting basis                 ... NOT available
Auxiliary Correlation fitting basis         ... NOT available
Auxiliary 'external' fitting basis          ... NOT available
Integral threshold                          ...     1.000000e-10
Primitive cut-off                           ...     1.000000e-11
Primitive pair pre-selection threshold      ...     1.000000e-11

Calculating pre-screening integrals         ... done (  0.0 sec) Dimension = 12
Organizing shell pair data                  ... done (  0.0 sec)
Shell pair information
Total number of shell pairs                 ...        78
Shell pairs after pre-screening             ...        78
Total number of primitive shell pairs       ...       272
Primitive shell pairs kept                  ...       263
          la=0 lb=0:     28 shell pairs
          la=1 lb=0:     28 shell pairs
          la=1 lb=1:     10 shell pairs
          la=2 lb=0:      7 shell pairs
          la=2 lb=1:      4 shell pairs
          la=2 lb=2:      1 shell pairs

Calculating one electron integrals          ... done (  0.0 sec)
Calculating RI/J V-Matrix + Cholesky decomp.... done (  0.0 sec)
Calculating Nuclear repulsion               ... done (  0.0 sec) ENN=      9.062766537149 Eh

SHARK setup successfully completed in   0.1 seconds

Maximum memory used throughout the entire GTOINT-calculation: 8.7 MB
-------------------------------------------------------------------------------
                                 ORCA SCF
-------------------------------------------------------------------------------

------------
SCF SETTINGS
------------
Hamiltonian:
 Density Functional     Method          .... DFT(GTOs)
 Exchange Functional    Exchange        .... B88
   X-Alpha parameter    XAlpha          ....  0.666667
   Becke's b parameter  XBeta           ....  0.004200
 Correlation Functional Correlation     .... LYP
 LDA part of GGA corr.  LDAOpt          .... VWN-5
 Gradients option       PostSCFGGA      .... off
 Hybrid DFT is turned on
   Fraction HF Exchange ScalHFX         ....  0.200000
   Scaling of DF-GGA-X  ScalDFX         ....  0.720000
   Scaling of DF-GGA-C  ScalDFC         ....  0.810000
   Scaling of DF-LDA-C  ScalLDAC        ....  1.000000
   Perturbative correction              ....  0.000000
   Density functional embedding theory  .... OFF
   NL short-range parameter             ....  4.800000
 RI-approximation to the Coulomb term is turned on
   Number of AuxJ basis functions       .... 71
   RIJ-COSX (HFX calculated with COS-X)).... on


General Settings:
 Integral files         IntName         .... H2O_sp
 Hartree-Fock type      HFTyp           .... RHF
 Total Charge           Charge          ....    0
 Multiplicity           Mult            ....    1
 Number of Electrons    NEL             ....   10
 Basis Dimension        Dim             ....   24
 Nuclear Repulsion      ENuc            ....      9.0627665371 Eh

Convergence Acceleration:
 DIIS                   CNVDIIS         .... on
   Start iteration      DIISMaxIt       ....    12
   Startup error        DIISStart       ....  0.200000
   # of expansion vecs  DIISMaxEq       ....     5
   Bias factor          DIISBfac        ....   1.050
   Max. coefficient     DIISMaxC        ....  10.000
 Trust-Rad. Augm. Hess. CNVTRAH         .... auto
   Auto Start mean grad. ratio tolernc. ....  1.125000
   Auto Start start iteration           ....    20
   Auto Start num. interpolation iter.  ....    10
   Max. Number of Micro iterations      ....    16
   Max. Number of Macro iterations      .... Maxiter - #DIIS iter
   Number of Davidson start vectors     ....     2
   Converg. threshold I  (grad. norm)   ....   5.000e-05
   Converg. threshold II (energy diff.) ....   1.000e-06
   Grad. Scal. Fac. for Micro threshold ....   0.100
   Minimum threshold for Micro iter.    ....   0.010
   NR start threshold (gradient norm)   ....   0.001
   Initial trust radius                 ....   0.400
   Minimum AH scaling param. (alpha)    ....   1.000
   Maximum AH scaling param. (alpha)    .... 1000.000
   Orbital update algorithm             .... Taylor
   White noise on init. David. guess    .... on
   Maximum white noise                  ....   0.010
   Quad. conv. algorithm                .... NR
 SOSCF                  CNVSOSCF        .... on
   Start iteration      SOSCFMaxIt      ....   150
   Startup grad/error   SOSCFStart      ....  0.003300
 Level Shifting         CNVShift        .... on
   Level shift para.    LevelShift      ....    0.2500
   Turn off err/grad.   ShiftErr        ....    0.0010
 Zerner damping         CNVZerner       .... off
 Static damping         CNVDamp         .... on
   Fraction old density DampFac         ....    0.7000
   Max. Damping (<1)    DampMax         ....    0.9800
   Min. Damping (>=0)   DampMin         ....    0.0000
   Turn off err/grad.   DampErr         ....    0.1000
 Fernandez-Rico         CNVRico         .... off

SCF Procedure:
 Maximum # iterations   MaxIter         ....   125
 SCF integral mode      SCFMode         .... Direct
   Integral package                     .... SHARK and LIBINT hybrid scheme
 Reset frequency        DirectResetFreq ....    20
 Integral Threshold     Thresh          ....  1.000e-10 Eh
 Primitive CutOff       TCut            ....  1.000e-11 Eh

Convergence Tolerance:
 Convergence Check Mode ConvCheckMode   .... Total+1el-Energy
 Convergence forced     ConvForced      .... 0
 Energy Change          TolE            ....  1.000e-06 Eh
 1-El. energy change                    ....  1.000e-03 Eh
 Orbital Gradient       TolG            ....  5.000e-05
 Orbital Rotation angle TolX            ....  5.000e-05
 DIIS Error             TolErr          ....  1.000e-06


Diagonalization of the overlap matrix:
Smallest eigenvalue                        ... 3.975e-02
Time for diagonalization                   ...    0.001 sec
Threshold for overlap eigenvalues          ... 1.000e-08
Number of eigenvalues below threshold      ... 0
Time for construction of square roots      ...    0.002 sec
Total time needed                          ...    0.003 sec

SHARK General Contraction Test:  Segmented basis detected
   -> Pre-screening matrix found on disk - Trying to read with NShells=12
   -> Passing Pre-screening matrix on to SHARK ...ok
   -> Leaving CheckPreScreeningMatrix
----------------------
SHARK INTEGRAL PACKAGE
----------------------

Number of atoms                             ...      3
Number of basis functions                   ...     24
Number of shells                            ...     12
Maximum angular momentum                    ...      2
Integral batch strategy                     ... SHARK/LIBINT Hybrid
RI-J (if used) integral strategy            ... SPLIT-RIJ (Revised 2003 algorithm where possible)
Printlevel                                  ...      2
Contraction scheme used                     ... SEGMENTED contraction
Coulomb Range Separation                    ... NOT USED
Exchange Range Separation                   ... NOT USED
Finite Nucleus Model                        ... NOT USED
Auxiliary Coulomb fitting basis             ... AVAILABLE
   # of basis functions in Aux-J            ...     71
   # of shells in Aux-J                     ...     25
   Maximum angular momentum in Aux-J        ...      4
Auxiliary J/K fitting basis                 ... NOT available
Auxiliary Correlation fitting basis         ... NOT available
Auxiliary 'external' fitting basis          ... NOT available
Integral threshold                          ...     1.000000e-10
Primitive cut-off                           ...     1.000000e-11
Primitive pair pre-selection threshold      ...     1.000000e-11

Time for model grid setup =    0.010 sec

------------------------------
INITIAL GUESS: MODEL POTENTIAL
------------------------------
Loading Hartree-Fock densities                     ... done
Calculating cut-offs                               ... done
Initializing the effective Hamiltonian             ... done
Setting up the integral package (SHARK)            ... done
Starting the Coulomb interaction                   ...     -> Generating integrals - 
    -> L=0 0 :     0.000 sec done=       588 skipped=         0 prim-skipped=         0
    -> L=1 0 :     0.000 sec done=       588 skipped=         0 prim-skipped=         0
    -> L=1 1 :     0.000 sec done=       210 skipped=         0 prim-skipped=         0
    -> L=2 0 :     0.000 sec done=       147 skipped=         0 prim-skipped=         0
    -> L=2 1 :     0.000 sec done=        84 skipped=         0 prim-skipped=         0
    -> L=2 2 :     0.000 sec done=        21 skipped=         0 prim-skipped=         0
done (   0.0 sec)
Reading the grid                                   ... done
Mapping shells                                     ... done
Starting the XC term evaluation                    ... done (   0.0 sec)
  promolecular density results
     # of electrons  =      9.999031277
     EX              =     -8.777575326
     EC              =     -0.334266356
     EX+EC           =     -9.111841682
Transforming the Hamiltonian                       ... done (   0.0 sec)
Diagonalizing the Hamiltonian                      ... done (   0.0 sec)
Back transforming the eigenvectors                 ... done (   0.0 sec)
Now organizing SCF variables                       ... done
                      ------------------
                      INITIAL GUESS DONE (   0.1 sec)
                      ------------------
----------------------
INITIAL GUESS ORBITALS
----------------------
                      0         1         2         3         4         5   
                 -18.99551  -1.03160  -0.59237  -0.46267  -0.39803  -0.01774
                   2.00000   2.00000   2.00000   2.00000   2.00000   0.00000
                  --------  --------  --------  --------  --------  --------
  0O   1s        -0.988563 -0.293904 -0.000001 -0.089992  0.000017  0.120161
  0O   2s         0.040546 -0.612996 -0.000002 -0.189167  0.000010  0.256966
  0O   3s        -0.014897 -0.257973 -0.000081 -0.269039  0.000091  0.864209
  0O   1pz       -0.001717  0.076367 -0.294762 -0.453973 -0.314107 -0.172838
  0O   1px        0.001363 -0.060718 -0.467810  0.360440 -0.000058  0.136940
  0O   1py       -0.000879  0.039003 -0.150539 -0.231580  0.615327 -0.088272
  0O   2pz       -0.000040 -0.005325 -0.106431 -0.241290 -0.198730 -0.208127
  0O   2px        0.000031  0.004285 -0.168908  0.191723 -0.000160  0.164669
  0O   2py       -0.000019 -0.002730 -0.054297 -0.123128  0.389292 -0.106288
  0O   1dz2       0.000067 -0.000479  0.011225  0.003732  0.007412  0.001365
  0O   1dxz       0.000620 -0.001327  0.005102 -0.008855 -0.003434 -0.005063
  0O   1dyz       0.000772 -0.002861  0.006640  0.006457 -0.006233  0.000780
  0O   1dx2y2     0.001001 -0.003268 -0.009865  0.002819  0.004238 -0.001291
  0O   1dxy       0.000318 -0.000723  0.002631 -0.004577  0.006753 -0.002548
  1H   1s        -0.002442 -0.176972 -0.294080  0.176984 -0.000000 -0.198827
  1H   2s         0.002508 -0.003775 -0.047077  0.030003  0.000068 -0.760913
  1H   1pz       -0.000036  0.005470 -0.010892 -0.018675 -0.010956 -0.003619
  1H   1px        0.003292  0.032301  0.030192 -0.016268 -0.000037 -0.006507
  1H   1py       -0.000018  0.002810 -0.005566 -0.009533  0.021490 -0.001841
  2H   1s        -0.002444 -0.176873  0.294153  0.176855 -0.000081 -0.199047
  2H   2s         0.002508 -0.003765  0.047198  0.030141 -0.000065 -0.762646
  2H   1pz       -0.002777 -0.025272  0.028998  0.007460 -0.010977  0.004263
  2H   1px       -0.001060 -0.016545 -0.001475  0.025179 -0.000012  0.006021
  2H   1py       -0.001418 -0.012903  0.014820  0.003819  0.021474  0.002124
                      6         7         8         9        10        11   
                   0.05094   0.46031   0.48447   0.73184   0.73599   0.84954
                   0.00000   0.00000   0.00000   0.00000   0.00000   0.00000
                  --------  --------  --------  --------  --------  --------
  0O   1s        -0.000110 -0.000008  0.083837 -0.143993  0.001188  0.000150
  0O   2s        -0.000294  0.000174  0.304035 -0.656354  0.004805  0.001359
  0O   3s        -0.000603 -0.000890 -0.345169  0.328228  0.000296 -0.003933
  0O   1pz       -0.210403  0.149859 -0.271326 -0.553224 -0.415371 -0.383677
  0O   1px       -0.334340  0.238210  0.215467  0.437281 -0.003953 -0.606009
  0O   1py       -0.107531  0.076316 -0.138584 -0.271777  0.828957 -0.194702
  0O   2pz       -0.273876  0.146199  0.035865  0.805615  0.465999  0.925663
  0O   2px       -0.435672  0.231114 -0.028491 -0.639548  0.005473  1.463936
  0O   2py       -0.139822  0.074928  0.018260  0.399229 -0.937579  0.471383
  0O   1dz2      -0.004439  0.071520 -0.002286 -0.001629 -0.000501  0.000027
  0O   1dxz      -0.002083  0.032819 -0.048359  0.015494  0.000113 -0.000137
  0O   1dyz      -0.002613  0.042122 -0.049198  0.006891  0.000531  0.000064
  0O   1dx2y2     0.003902 -0.062819 -0.067491  0.012837 -0.000677 -0.000015
  0O   1dxy      -0.001015  0.016712 -0.024724  0.007589 -0.000589  0.000274
  1H   1s         0.214401 -0.957650 -0.864050  0.354369 -0.004064 -0.374951
  1H   2s         1.138265  0.951202  0.678591 -0.075040  0.001295 -0.825048
  1H   1pz       -0.003681  0.054761 -0.075891  0.061197  0.008934  0.057281
  1H   1px        0.010936 -0.081022 -0.144512 -0.074348  0.000663  0.217694
  1H   1py       -0.001914  0.028008 -0.038708  0.031101 -0.019537  0.029264
  2H   1s        -0.213621  0.958766 -0.863781  0.352391 -0.004722  0.377825
  2H   2s        -1.137427 -0.951061  0.677930 -0.076799 -0.001154  0.826490
  2H   1pz        0.010440 -0.086141  0.096017  0.082359  0.008413  0.164650
  2H   1px       -0.000209  0.031059  0.128556 -0.040084  0.000252  0.132740
  2H   1py        0.005320 -0.044055  0.049070  0.041726 -0.019561  0.084103
                     12        13        14        15        16        17   
                   0.94273   1.21258   1.34148   1.44920   1.64007   2.04668
                   0.00000   0.00000   0.00000   0.00000   0.00000   0.00000
                  --------  --------  --------  --------  --------  --------
  0O   1s        -0.243235  0.000136  0.073112 -0.000039 -0.000061 -0.000247
  0O   2s        -1.566389  0.000782  0.608966 -0.000326 -0.000528 -0.001301
  0O   3s         2.870475 -0.001252 -1.387109  0.000699  0.001386 -0.000847
  0O   1pz        0.114786 -0.000076 -0.080895  0.003155  0.051424 -0.355264
  0O   1px       -0.092093 -0.000047  0.064339 -0.000138  0.081290 -0.565607
  0O   1py        0.057376 -0.000116 -0.041089 -0.005976  0.026316 -0.181359
  0O   2pz       -0.512752  0.000320  0.763995 -0.257769 -0.457679 -0.114979
  0O   2px        0.410087  0.000075 -0.607520  0.000712 -0.725021 -0.182975
  0O   2py       -0.260453  0.000115  0.390535  0.503866 -0.233840 -0.058867
  0O   1dz2       0.009612  0.083506  0.073693 -0.142837 -0.011052 -0.133996
  0O   1dxz      -0.052959  0.076292 -0.170492  0.065413 -0.004809 -0.061608
  0O   1dyz      -0.010419 -0.069448  0.128574  0.118842 -0.006526 -0.078202
  0O   1dx2y2    -0.031253  0.048211  0.058284 -0.082546  0.009481  0.118021
  0O   1dxy      -0.027224 -0.149141 -0.087260 -0.127764 -0.002696 -0.030996
  1H   1s        -0.507652  0.000066  0.624616 -0.000476  0.379757  0.188606
  1H   2s        -0.575894  0.000178  0.144449 -0.000210  0.090803  0.362664
  1H   1pz       -0.185886  0.296180 -0.563124  0.329962  0.705993  0.072890
  1H   1px        0.171676 -0.000079 -0.026338  0.000071  0.002002 -0.851943
  1H   1py       -0.095292 -0.579828 -0.288272 -0.645105  0.360569  0.036950
  2H   1s        -0.506140  0.000127  0.624021 -0.000188 -0.380851 -0.187740
  2H   2s        -0.573889  0.000365  0.144593  0.000091 -0.091208 -0.361955
  2H   1pz       -0.205888 -0.296221 -0.165651  0.329485 -0.233649 -0.737209
  2H   1px        0.139786 -0.000154  0.606212 -0.000466  0.747302 -0.205988
  2H   1py       -0.104876  0.580316 -0.085366 -0.644488 -0.119280 -0.376212
                     18        19        20        21        22        23   
                   2.06871   2.68313   2.77853   2.91070   3.30127   3.53942
                   0.00000   0.00000   0.00000   0.00000   0.00000   0.00000
                  --------  --------  --------  --------  --------  --------
  0O   1s        -0.138594  0.000261 -0.000312  0.010594  0.078100  0.000103
  0O   2s        -0.683229  0.000782 -0.000509 -0.057949  0.159825  0.000241
  0O   3s        -0.665702  0.004570 -0.007015  0.719300  1.871270  0.002217
  0O   1pz        0.366322  0.004383  0.001494 -0.045285 -0.261711 -0.240315
  0O   1px       -0.289179  0.000589  0.000545  0.036917  0.208378 -0.381028
  0O   1py        0.187075 -0.011102  0.000474 -0.023119 -0.133618 -0.122877
  0O   2pz        0.150352 -0.142545  0.003314 -0.454260 -0.579485 -0.607485
  0O   2px       -0.118906  0.000512 -0.001942  0.362378  0.461969 -0.962268
  0O   2py        0.077247  0.273578  0.005429 -0.232415 -0.296421 -0.310281
  0O   1dz2       0.052865  0.585546 -0.422387  0.301565  0.035257  0.848878
  0O   1dxz       0.042753 -0.261715 -0.388847 -0.765422  0.539708  0.388626
  0O   1dyz       0.228003 -0.486644  0.345469  0.489441  0.597513  0.503098
  0O   1dx2y2     0.241003  0.338435 -0.242645  0.172337  0.798719 -0.745837
  0O   1dxy       0.021829  0.511967  0.771618 -0.385246  0.275620  0.199697
  1H   1s         0.340966 -0.002008  0.002494 -0.400124 -1.096050  1.042539
  1H   2s         0.216709 -0.000375  0.000516 -0.094570 -0.244009  0.290261
  1H   1pz       -0.059199  0.191063  0.183544  0.452004 -0.056123  0.007512
  1H   1px       -0.847054  0.001830 -0.001049  0.201978  0.826003 -0.806890
  1H   1py       -0.030396 -0.371962 -0.367166  0.228351 -0.028426  0.003378
  2H   1s         0.341917 -0.003412  0.005890 -0.397622 -1.093666 -1.045467
  2H   2s         0.218110 -0.000897  0.001398 -0.093952 -0.243363 -0.290746
  2H   1pz        0.694712  0.192200 -0.179972 -0.018929 -0.711045 -0.681635
  2H   1px        0.346051 -0.001604  0.004844 -0.544056 -0.215374 -0.262712
  2H   1py        0.353907 -0.381755  0.358906 -0.005938 -0.362194 -0.347307
-------------------
DFT GRID GENERATION
-------------------

General Integration Accuracy     IntAcc      ... 4.388
Radial Grid Type                 RadialGrid  ... OptM3 with GC (2021)
Angular Grid (max. ang.)         AngularGrid ... 4 (Lebedev-302)
Angular grid pruning method      GridPruning ... 4 (adaptive)
Weight generation scheme         WeightScheme... Becke
Basis function cutoff            BFCut       ... 1.0000e-10
Integration weight cutoff        WCut        ... 1.0000e-14
Angular grids for H and He will be reduced by one unit
Partially contracted basis set               ... off
Rotationally invariant grid construction     ... off

Total number of grid points                  ...    12753
Total number of batches                      ...      200
Average number of points per batch           ...       63
Average number of grid points per atom       ...     4251
Time for grid setup =    0.051 sec

--------------------
COSX GRID GENERATION
--------------------

GRIDX 1
-------
General Integration Accuracy     IntAcc      ... 3.816
Radial Grid Type                 RadialGrid  ... OptM3 with GC (2021)
Angular Grid (max. ang.)         AngularGrid ... 1 (Lebedev-50)
Angular grid pruning method      GridPruning ... 4 (adaptive)
Weight generation scheme         WeightScheme... Becke
Basis function cutoff            BFCut       ... 1.0000e-10
Integration weight cutoff        WCut        ... 1.0000e-14
Angular grids for H and He will be reduced by one unit
Partially contracted basis set               ... on
Rotationally invariant grid construction     ... off

Total number of grid points                  ...     1657
Total number of batches                      ...       27
Average number of points per batch           ...       61
Average number of grid points per atom       ...      552
UseSFitting                                  ... on

GRIDX 2
-------
General Integration Accuracy     IntAcc      ... 4.020
Radial Grid Type                 RadialGrid  ... OptM3 with GC (2021)
Angular Grid (max. ang.)         AngularGrid ... 2 (Lebedev-110)
Angular grid pruning method      GridPruning ... 4 (adaptive)
Weight generation scheme         WeightScheme... Becke
Basis function cutoff            BFCut       ... 1.0000e-10
Integration weight cutoff        WCut        ... 1.0000e-14
Angular grids for H and He will be reduced by one unit
Partially contracted basis set               ... on
Rotationally invariant grid construction     ... off

Total number of grid points                  ...     3503
Total number of batches                      ...       56
Average number of points per batch           ...       62
Average number of grid points per atom       ...     1168
UseSFitting                                  ... on

GRIDX 3
-------
General Integration Accuracy     IntAcc      ... 4.338
Radial Grid Type                 RadialGrid  ... OptM3 with GC (2021)
Angular Grid (max. ang.)         AngularGrid ... 3 (Lebedev-194)
Angular grid pruning method      GridPruning ... 4 (adaptive)
Weight generation scheme         WeightScheme... Becke
Basis function cutoff            BFCut       ... 1.0000e-10
Integration weight cutoff        WCut        ... 1.0000e-14
Angular grids for H and He will be reduced by one unit
Partially contracted basis set               ... on
Rotationally invariant grid construction     ... off

Total number of grid points                  ...     7766
Total number of batches                      ...      123
Average number of points per batch           ...       63
Average number of grid points per atom       ...     2589
UseSFitting                                  ... on

Time for X-Grid setup             =    0.077 sec

--------------
SCF ITERATIONS
--------------
               ***  Starting incremental Fock matrix formation  ***
==>> SHARK/AuxDens: NDens=1 Thresh =     1.000000e-10 TCut=    1.000000e-11 Lmax=2 LmaxAux=4
    -> Making Hermite density - ok     0.001 sec
    -> Making Aux-basis density - (lmax=2)
    -> L=0 0:    0.000 sec done=       700 (100.0%) skipped=         0 
    -> L=1 0:    0.000 sec done=       700 (100.0%) skipped=         0 
    -> L=1 1:    0.000 sec done=       250 (100.0%) skipped=         0 
    -> L=2 0:    0.000 sec done=       175 (100.0%) skipped=         0 
    -> L=2 1:    0.001 sec done=       100 (100.0%) skipped=         0 
    -> L=2 2:    0.000 sec done=        25 (100.0%) skipped=         0 
    -> Aux basis density formed in    0.0 sec
    -> Solving linear equations - ok (   0.0 sec)
        Auxbasis Hermite Density:
        P|s>                     ...  0.000
        P|p>                     ...  0.000
        P|d>                     ...  0.000
        P|f>                     ...  0.000
        P|g>                     ...  0.000
        Building the Coulomb matrix: 
        J|ss>                          ... done (  0.0 sec) ndone=     5074 nskipped1=        0 nskipped2=        6
        J|ps>                          ... done (  0.0 sec) ndone=     3524 nskipped1=        0 nskipped2=       76
        J|pp>                          ... done (  0.0 sec) ndone=      960 nskipped1=        0 nskipped2=        0
        J|ds>                          ... done (  0.0 sec) ndone=      600 nskipped1=        0 nskipped2=        0
        J|dp>                          ... done (  0.0 sec) ndone=      240 nskipped1=        0 nskipped2=        0
        J|dd>                          ... done (  0.0 sec) ndone=       40 nskipped1=        0 nskipped2=        0
        Coulomb matrix built in   0.0 sec

        Total time for Split-RI-J                ...    0.003 sec
          (0) Prelude                            ...    0.000 sec
          (1) Hermite density                    ...    0.000 sec
          (2) Aux basis density                  ...    0.000 sec (inner=  0.0)
          (3) Linear equation solution           ...    0.000 sec
          (4) J-Matrix construction              ...    0.001 sec (inner=  0.0)
        ---------------------------------------------------------

                         ----------------------------
                         !        ITERATION     0   !
                         ----------------------------
   Total Energy        :     -76.225230273239 Eh
   Energy Change       :     -76.225230273239 Eh
   MAX-DP              :       0.087990187548
   RMS-DP              :       0.009205995448
   Actual Damping      :       0.7000
   Actual Level Shift  :       0.2500 Eh
   Int. Num. El.       :     9.99999997 (UP=    4.99999998 DN=    4.99999998)
   Exchange            :    -7.35016060
   Correlation         :    -0.41094374

==>> SHARK/AuxDens: NDens=1 Thresh =     1.000000e-10 TCut=    1.000000e-11 Lmax=2 LmaxAux=4
    -> Making Hermite density - ok     0.000 sec
    -> Making Aux-basis density - (lmax=2)
    -> L=0 0:    0.000 sec done=       700 (100.0%) skipped=         0 
    -> L=1 0:    0.000 sec done=       700 (100.0%) skipped=         0 
    -> L=1 1:    0.000 sec done=       250 (100.0%) skipped=         0 
    -> L=2 0:    0.000 sec done=       175 (100.0%) skipped=         0 
    -> L=2 1:    0.000 sec done=       100 (100.0%) skipped=         0 
    -> L=2 2:    0.000 sec done=        25 (100.0%) skipped=         0 
    -> Aux basis density formed in    0.0 sec
    -> Solving linear equations - ok (   0.0 sec)
        Auxbasis Hermite Density:
        P|s>                     ...  0.000
        P|p>                     ...  0.000
        P|d>                     ...  0.000
        P|f>                     ...  0.000
        P|g>                     ...  0.000
        Building the Coulomb matrix: 
        J|ss>                          ... done (  0.0 sec) ndone=     5074 nskipped1=        0 nskipped2=        6
        J|ps>                          ... done (  0.0 sec) ndone=     3524 nskipped1=        0 nskipped2=       76
        J|pp>                          ... done (  0.0 sec) ndone=      960 nskipped1=        0 nskipped2=        0
        J|ds>                          ... done (  0.0 sec) ndone=      600 nskipped1=        0 nskipped2=        0
        J|dp>                          ... done (  0.0 sec) ndone=      240 nskipped1=        0 nskipped2=        0
        J|dd>                          ... done (  0.0 sec) ndone=       40 nskipped1=        0 nskipped2=        0
        Coulomb matrix built in   0.0 sec

        Total time for Split-RI-J                ...    0.002 sec
          (0) Prelude                            ...    0.000 sec
          (1) Hermite density                    ...    0.000 sec
          (2) Aux basis density                  ...    0.000 sec (inner=  0.0)
          (3) Linear equation solution           ...    0.000 sec
          (4) J-Matrix construction              ...    0.000 sec (inner=  0.0)
        ---------------------------------------------------------

                         ----------------------------
                         !        ITERATION     1   !
                         ----------------------------
   Total Energy        :     -76.271893537864 Eh
   Energy Change       :      -0.046663264625 Eh
   MAX-DP              :       0.048915841138
   RMS-DP              :       0.005210319025
   Actual Damping      :       0.7000
   Actual Level Shift  :       0.2500 Eh
   Int. Num. El.       :     9.99999964 (UP=    4.99999982 DN=    4.99999982)
   Exchange            :    -7.21183056
   Correlation         :    -0.40583057

==>> SHARK/AuxDens: NDens=1 Thresh =     1.000000e-10 TCut=    1.000000e-11 Lmax=2 LmaxAux=4
    -> Making Hermite density - ok     0.000 sec
    -> Making Aux-basis density - (lmax=2)
    -> L=0 0:    0.001 sec done=       700 (100.0%) skipped=         0 
    -> L=1 0:    0.000 sec done=       700 (100.0%) skipped=         0 
    -> L=1 1:    0.000 sec done=       250 (100.0%) skipped=         0 
    -> L=2 0:    0.000 sec done=       175 (100.0%) skipped=         0 
    -> L=2 1:    0.000 sec done=       100 (100.0%) skipped=         0 
    -> L=2 2:    0.000 sec done=        25 (100.0%) skipped=         0 
    -> Aux basis density formed in    0.0 sec
    -> Solving linear equations - ok (   0.0 sec)
        Auxbasis Hermite Density:
        P|s>                     ...  0.000
        P|p>                     ...  0.000
        P|d>                     ...  0.000
        P|f>                     ...  0.000
        P|g>                     ...  0.000
        Building the Coulomb matrix: 
        J|ss>                          ... done (  0.0 sec) ndone=     5074 nskipped1=        0 nskipped2=        6
        J|ps>                          ... done (  0.0 sec) ndone=     3524 nskipped1=        0 nskipped2=       76
        J|pp>                          ... done (  0.0 sec) ndone=      960 nskipped1=        0 nskipped2=        0
        J|ds>                          ... done (  0.0 sec) ndone=      600 nskipped1=        0 nskipped2=        0
        J|dp>                          ... done (  0.0 sec) ndone=      240 nskipped1=        0 nskipped2=        0
        J|dd>                          ... done (  0.0 sec) ndone=       40 nskipped1=        0 nskipped2=        0
        Coulomb matrix built in   0.0 sec

        Total time for Split-RI-J                ...    0.003 sec
          (0) Prelude                            ...    0.000 sec
          (1) Hermite density                    ...    0.000 sec
          (2) Aux basis density                  ...    0.000 sec (inner=  0.0)
          (3) Linear equation solution           ...    0.000 sec
          (4) J-Matrix construction              ...    0.001 sec (inner=  0.0)
        ---------------------------------------------------------
                               ***Turning on DIIS***

                         ----------------------------
                         !        ITERATION     2   !
                         ----------------------------
   Total Energy        :     -76.287735513915 Eh
   Energy Change       :      -0.015841976051 Eh
   MAX-DP              :       0.058547166211
   RMS-DP              :       0.006087719076
   Actual Damping      :       0.0000
   Actual Level Shift  :       0.2500 Eh
   Int. Num. El.       :     9.99999941 (UP=    4.99999971 DN=    4.99999971)
   Exchange            :    -7.13845217
   Correlation         :    -0.40297153
   DIIS-Error          :       0.033629487051

==>> SHARK/AuxDens: NDens=1 Thresh =     1.000000e-10 TCut=    1.000000e-11 Lmax=2 LmaxAux=4
    -> Making Hermite density - ok     0.000 sec
    -> Making Aux-basis density - (lmax=2)
    -> L=0 0:    0.001 sec done=       700 (100.0%) skipped=         0 
    -> L=1 0:    0.000 sec done=       700 (100.0%) skipped=         0 
    -> L=1 1:    0.000 sec done=       250 (100.0%) skipped=         0 
    -> L=2 0:    0.001 sec done=       175 (100.0%) skipped=         0 
    -> L=2 1:    0.000 sec done=       100 (100.0%) skipped=         0 
    -> L=2 2:    0.000 sec done=        25 (100.0%) skipped=         0 
    -> Aux basis density formed in    0.0 sec
    -> Solving linear equations - ok (   0.0 sec)
        Auxbasis Hermite Density:
        P|s>                     ...  0.000
        P|p>                     ...  0.000
        P|d>                     ...  0.000
        P|f>                     ...  0.000
        P|g>                     ...  0.000
        Building the Coulomb matrix: 
        J|ss>                          ... done (  0.0 sec) ndone=     5074 nskipped1=        0 nskipped2=        6
        J|ps>                          ... done (  0.0 sec) ndone=     3524 nskipped1=        0 nskipped2=       76
        J|pp>                          ... done (  0.0 sec) ndone=      960 nskipped1=        0 nskipped2=        0
        J|ds>                          ... done (  0.0 sec) ndone=      600 nskipped1=        0 nskipped2=        0
        J|dp>                          ... done (  0.0 sec) ndone=      240 nskipped1=        0 nskipped2=        0
        J|dd>                          ... done (  0.0 sec) ndone=       40 nskipped1=        0 nskipped2=        0
        Coulomb matrix built in   0.0 sec

        Total time for Split-RI-J                ...    0.004 sec
          (0) Prelude                            ...    0.000 sec
          (1) Hermite density                    ...    0.000 sec
          (2) Aux basis density                  ...    0.000 sec (inner=  0.0)
          (3) Linear equation solution           ...    0.000 sec
          (4) J-Matrix construction              ...    0.002 sec (inner=  0.0)
        ---------------------------------------------------------

                         ----------------------------
                         !        ITERATION     3   !
                         ----------------------------
   Total Energy        :     -76.314871103987 Eh
   Energy Change       :      -0.027135590072 Eh
   MAX-DP              :       0.031208786739
   RMS-DP              :       0.003335425764
   Actual Damping      :       0.0000
   Actual Level Shift  :       0.2500 Eh
   Int. Num. El.       :     9.99999913 (UP=    4.99999957 DN=    4.99999957)
   Exchange            :    -7.06611691
   Correlation         :    -0.39997027
   DIIS-Error          :       0.073601471481
   DIIS coefficients:
      0.66885   0.33115

==>> SHARK/AuxDens: NDens=1 Thresh =     1.000000e-10 TCut=    1.000000e-11 Lmax=2 LmaxAux=4
    -> Making Hermite density - ok     0.001 sec
    -> Making Aux-basis density - (lmax=2)
    -> L=0 0:    0.000 sec done=       700 (100.0%) skipped=         0 
    -> L=1 0:    0.001 sec done=       700 (100.0%) skipped=         0 
    -> L=1 1:    0.000 sec done=       250 (100.0%) skipped=         0 
    -> L=2 0:    0.000 sec done=       175 (100.0%) skipped=         0 
    -> L=2 1:    0.000 sec done=       100 (100.0%) skipped=         0 
    -> L=2 2:    0.000 sec done=        25 (100.0%) skipped=         0 
    -> Aux basis density formed in    0.0 sec
    -> Solving linear equations - ok (   0.0 sec)
        Auxbasis Hermite Density:
        P|s>                     ...  0.000
        P|p>                     ...  0.000
        P|d>                     ...  0.000
        P|f>                     ...  0.000
        P|g>                     ...  0.000
        Building the Coulomb matrix: 
        J|ss>                          ... done (  0.0 sec) ndone=     5074 nskipped1=        0 nskipped2=        6
        J|ps>                          ... done (  0.0 sec) ndone=     3524 nskipped1=        0 nskipped2=       76
        J|pp>                          ... done (  0.0 sec) ndone=      960 nskipped1=        0 nskipped2=        0
        J|ds>                          ... done (  0.0 sec) ndone=      600 nskipped1=        0 nskipped2=        0
        J|dp>                          ... done (  0.0 sec) ndone=      240 nskipped1=        0 nskipped2=        0
        J|dd>                          ... done (  0.0 sec) ndone=       40 nskipped1=        0 nskipped2=        0
        Coulomb matrix built in   0.0 sec

        Total time for Split-RI-J                ...    0.004 sec
          (0) Prelude                            ...    0.000 sec
          (1) Hermite density                    ...    0.000 sec
          (2) Aux basis density                  ...    0.000 sec (inner=  0.0)
          (3) Linear equation solution           ...    0.000 sec
          (4) J-Matrix construction              ...    0.001 sec (inner=  0.0)
        ---------------------------------------------------------

                         ----------------------------
                         !        ITERATION     4   !
                         ----------------------------
   Total Energy        :     -76.320161475903 Eh
   Energy Change       :      -0.005290371916 Eh
   MAX-DP              :       0.004747698482
   RMS-DP              :       0.000596677684
   Actual Damping      :       0.0000
   Actual Level Shift  :       0.2500 Eh
   Int. Num. El.       :     9.99999928 (UP=    4.99999964 DN=    4.99999964)
   Exchange            :    -7.11257461
   Correlation         :    -0.40180244
   DIIS-Error          :       0.010140917422
   DIIS coefficients:
      0.14316  -0.06331   0.92015

==>> SHARK/AuxDens: NDens=1 Thresh =     1.000000e-10 TCut=    1.000000e-11 Lmax=2 LmaxAux=4
    -> Making Hermite density - ok     0.000 sec
    -> Making Aux-basis density - (lmax=2)
    -> L=0 0:    0.001 sec done=       700 (100.0%) skipped=         0 
    -> L=1 0:    0.000 sec done=       700 (100.0%) skipped=         0 
    -> L=1 1:    0.000 sec done=       250 (100.0%) skipped=         0 
    -> L=2 0:    0.000 sec done=       175 (100.0%) skipped=         0 
    -> L=2 1:    0.000 sec done=       100 (100.0%) skipped=         0 
    -> L=2 2:    0.001 sec done=        25 (100.0%) skipped=         0 
    -> Aux basis density formed in    0.0 sec
    -> Solving linear equations - ok (   0.0 sec)
        Auxbasis Hermite Density:
        P|s>                     ...  0.000
        P|p>                     ...  0.000
        P|d>                     ...  0.000
        P|f>                     ...  0.000
        P|g>                     ...  0.000
        Building the Coulomb matrix: 
        J|ss>                          ... done (  0.0 sec) ndone=     5074 nskipped1=        0 nskipped2=        6
        J|ps>                          ... done (  0.0 sec) ndone=     3524 nskipped1=        0 nskipped2=       76
        J|pp>                          ... done (  0.0 sec) ndone=      960 nskipped1=        0 nskipped2=        0
        J|ds>                          ... done (  0.0 sec) ndone=      600 nskipped1=        0 nskipped2=        0
        J|dp>                          ... done (  0.0 sec) ndone=      240 nskipped1=        0 nskipped2=        0
        J|dd>                          ... done (  0.0 sec) ndone=       40 nskipped1=        0 nskipped2=        0
        Coulomb matrix built in   0.0 sec

        Total time for Split-RI-J                ...    0.003 sec
          (0) Prelude                            ...    0.000 sec
          (1) Hermite density                    ...    0.000 sec
          (2) Aux basis density                  ...    0.000 sec (inner=  0.0)
          (3) Linear equation solution           ...    0.000 sec
          (4) J-Matrix construction              ...    0.001 sec (inner=  0.0)
        ---------------------------------------------------------
                      *** Initiating the SOSCF procedure ***
                           *** Shutting down DIIS ***
                      *** Re-Reading the Fockian *** 
                      *** Removing any level shift *** 

                         ----------------------------
                         !        ITERATION     5   !
                         ----------------------------
   Total Energy        :     -76.320288754169 Eh
   Energy Change       :      -0.000127278266 Eh
   MAX-DP              :       0.001553495600
   RMS-DP              :       0.000171941697
   Orbital gradient    :       0.000783815204
   Orbital Rotation    :       0.000783815204
   Actual Damping      :       0.0000
   Int. Num. El.       :     9.99999932 (UP=    4.99999966 DN=    4.99999966)
   Exchange            :    -7.11856181
   Correlation         :    -0.40206274

               *** Restarting incremental Fock matrix formation ***
==>> SHARK/AuxDens: NDens=1 Thresh =     1.000000e-10 TCut=    1.000000e-11 Lmax=2 LmaxAux=4
    -> Making Hermite density - ok     0.000 sec
    -> Making Aux-basis density - (lmax=2)
    -> L=0 0:    0.001 sec done=       700 (100.0%) skipped=         0 
    -> L=1 0:    0.000 sec done=       700 (100.0%) skipped=         0 
    -> L=1 1:    0.000 sec done=       250 (100.0%) skipped=         0 
    -> L=2 0:    0.000 sec done=       175 (100.0%) skipped=         0 
    -> L=2 1:    0.000 sec done=       100 (100.0%) skipped=         0 
    -> L=2 2:    0.000 sec done=        25 (100.0%) skipped=         0 
    -> Aux basis density formed in    0.0 sec
    -> Solving linear equations - ok (   0.0 sec)
        Auxbasis Hermite Density:
        P|s>                     ...  0.000
        P|p>                     ...  0.000
        P|d>                     ...  0.000
        P|f>                     ...  0.000
        P|g>                     ...  0.000
        Building the Coulomb matrix: 
        J|ss>                          ... done (  0.0 sec) ndone=     5074 nskipped1=        0 nskipped2=        6
        J|ps>                          ... done (  0.0 sec) ndone=     3524 nskipped1=        0 nskipped2=       76
        J|pp>                          ... done (  0.0 sec) ndone=      960 nskipped1=        0 nskipped2=        0
        J|ds>                          ... done (  0.0 sec) ndone=      600 nskipped1=        0 nskipped2=        0
        J|dp>                          ... done (  0.0 sec) ndone=      240 nskipped1=        0 nskipped2=        0
        J|dd>                          ... done (  0.0 sec) ndone=       40 nskipped1=        0 nskipped2=        0
        Coulomb matrix built in   0.0 sec

        Total time for Split-RI-J                ...    0.002 sec
          (0) Prelude                            ...    0.000 sec
          (1) Hermite density                    ...    0.000 sec
          (2) Aux basis density                  ...    0.000 sec (inner=  0.0)
          (3) Linear equation solution           ...    0.000 sec
          (4) J-Matrix construction              ...    0.000 sec (inner=  0.0)
        ---------------------------------------------------------

                         ----------------------------
                         !        ITERATION     6   !
                         ----------------------------
   Total Energy        :     -76.320244891380 Eh
   Energy Change       :       0.000043862789 Eh
   MAX-DP              :       0.001319024586
   RMS-DP              :       0.000117864508
   Orbital gradient    :       0.000350170417
   Orbital Rotation    :       0.000876194256
   Actual Damping      :       0.0000
   Int. Num. El.       :     9.99999933 (UP=    4.99999967 DN=    4.99999967)
   Exchange            :    -7.11953263
   Correlation         :    -0.40210949

==>> SHARK/AuxDens: NDens=1 Thresh =     1.000000e-10 TCut=    1.000000e-11 Lmax=2 LmaxAux=4
    -> Making Hermite density - ok     0.000 sec
    -> Making Aux-basis density - (lmax=2)
    -> L=0 0:    0.000 sec done=       700 (100.0%) skipped=         0 
    -> L=1 0:    0.001 sec done=       700 (100.0%) skipped=         0 
    -> L=1 1:    0.000 sec done=       250 (100.0%) skipped=         0 
    -> L=2 0:    0.000 sec done=       175 (100.0%) skipped=         0 
    -> L=2 1:    0.000 sec done=       100 (100.0%) skipped=         0 
    -> L=2 2:    0.000 sec done=        25 (100.0%) skipped=         0 
    -> Aux basis density formed in    0.0 sec
    -> Solving linear equations - ok (   0.0 sec)
        Auxbasis Hermite Density:
        P|s>                     ...  0.000
        P|p>                     ...  0.000
        P|d>                     ...  0.000
        P|f>                     ...  0.000
        P|g>                     ...  0.000
        Building the Coulomb matrix: 
        J|ss>                          ... done (  0.0 sec) ndone=     5074 nskipped1=        0 nskipped2=        6
        J|ps>                          ... done (  0.0 sec) ndone=     3524 nskipped1=        0 nskipped2=       76
        J|pp>                          ... done (  0.0 sec) ndone=      960 nskipped1=        0 nskipped2=        0
        J|ds>                          ... done (  0.0 sec) ndone=      600 nskipped1=        0 nskipped2=        0
        J|dp>                          ... done (  0.0 sec) ndone=      240 nskipped1=        0 nskipped2=        0
        J|dd>                          ... done (  0.0 sec) ndone=       40 nskipped1=        0 nskipped2=        0
        Coulomb matrix built in   0.0 sec

        Total time for Split-RI-J                ...    0.003 sec
          (0) Prelude                            ...    0.000 sec
          (1) Hermite density                    ...    0.000 sec
          (2) Aux basis density                  ...    0.000 sec (inner=  0.0)
          (3) Linear equation solution           ...    0.000 sec
          (4) J-Matrix construction              ...    0.001 sec (inner=  0.0)
        ---------------------------------------------------------

                         ----------------------------
                         !        ITERATION     7   !
                         ----------------------------
   Total Energy        :     -76.320245303809 Eh
   Energy Change       :      -0.000000412429 Eh
   MAX-DP              :       0.000397019214
   RMS-DP              :       0.000036114400
   Orbital gradient    :       0.000327180376
   Orbital Rotation    :       0.000149993075
   Actual Damping      :       0.0000
   Int. Num. El.       :     9.99999934 (UP=    4.99999967 DN=    4.99999967)
   Exchange            :    -7.12019480
   Correlation         :    -0.40213930

==>> SHARK/AuxDens: NDens=1 Thresh =     1.000000e-10 TCut=    1.000000e-11 Lmax=2 LmaxAux=4
    -> Making Hermite density - ok     0.000 sec
    -> Making Aux-basis density - (lmax=2)
    -> L=0 0:    0.001 sec done=       700 (100.0%) skipped=         0 
    -> L=1 0:    0.000 sec done=       700 (100.0%) skipped=         0 
    -> L=1 1:    0.000 sec done=       250 (100.0%) skipped=         0 
    -> L=2 0:    0.000 sec done=       175 (100.0%) skipped=         0 
    -> L=2 1:    0.000 sec done=       100 (100.0%) skipped=         0 
    -> L=2 2:    0.000 sec done=        25 (100.0%) skipped=         0 
    -> Aux basis density formed in    0.0 sec
    -> Solving linear equations - ok (   0.0 sec)
        Auxbasis Hermite Density:
        P|s>                     ...  0.000
        P|p>                     ...  0.000
        P|d>                     ...  0.000
        P|f>                     ...  0.000
        P|g>                     ...  0.000
        Building the Coulomb matrix: 
        J|ss>                          ... done (  0.0 sec) ndone=     5074 nskipped1=        0 nskipped2=        6
        J|ps>                          ... done (  0.0 sec) ndone=     3524 nskipped1=        0 nskipped2=       76
        J|pp>                          ... done (  0.0 sec) ndone=      960 nskipped1=        0 nskipped2=        0
        J|ds>                          ... done (  0.0 sec) ndone=      600 nskipped1=        0 nskipped2=        0
        J|dp>                          ... done (  0.0 sec) ndone=      240 nskipped1=        0 nskipped2=        0
        J|dd>                          ... done (  0.0 sec) ndone=       40 nskipped1=        0 nskipped2=        0
        Coulomb matrix built in   0.0 sec

        Total time for Split-RI-J                ...    0.002 sec
          (0) Prelude                            ...    0.000 sec
          (1) Hermite density                    ...    0.000 sec
          (2) Aux basis density                  ...    0.000 sec (inner=  0.0)
          (3) Linear equation solution           ...    0.000 sec
          (4) J-Matrix construction              ...    0.000 sec (inner=  0.0)
        ---------------------------------------------------------
                 **** Energy Check signals convergence ****
              ***Rediagonalizing the Fockian in SOSCF/NRSCF***

               *****************************************************
               *                     SUCCESS                       *
               *           SCF CONVERGED AFTER   8 CYCLES          *
               *****************************************************

Old exchange energy                            =     -1.789340874 Eh
New exchange energy                            =     -1.789348863 Eh
Exchange energy change after final integration =     -0.000007989 Eh
Total energy after final integration           =    -76.320253575 Eh
Final COS-X integration done in                =     0.064 sec

----------------
TOTAL SCF ENERGY
----------------

Total Energy       :          -76.32025358 Eh           -2076.77968 eV

Components:
Nuclear Repulsion  :            9.06276654 Eh             246.61041 eV
Electronic Energy  :          -85.38302011 Eh           -2323.39010 eV
One Electron Energy:         -122.90113745 Eh           -3344.30997 eV
Two Electron Energy:           37.51811734 Eh            1020.91988 eV
Max COSX asymmetry :            0.00000045 Eh               0.00001 eV

Virial components:
Potential Energy   :         -152.12562184 Eh           -4139.54862 eV
Kinetic Energy     :           75.80536827 Eh            2062.76894 eV
Virial Ratio       :            2.00679220


DFT components:
N(Alpha)           :        4.999999670460 electrons
N(Beta)            :        4.999999670460 electrons
N(Total)           :        9.999999340920 electrons
E(X)               :       -7.119708471263 Eh       
E(C)               :       -0.402121388330 Eh       
E(XC)              :       -7.521829859593 Eh       
DFET-embed. en.    :        0.000000000000 Eh       

---------------
SCF CONVERGENCE
---------------

  Last Energy change         ...   -2.8205e-07  Tolerance :   1.0000e-06
  Last MAX-Density change    ...    3.5527e-15  Tolerance :   1.0000e-05
  Last RMS-Density change    ...    1.8060e-16  Tolerance :   1.0000e-06
  Last Orbital Gradient      ...    7.6505e-05  Tolerance :   5.0000e-05
  Last Orbital Rotation      ...    1.2243e-04  Tolerance :   5.0000e-05

             **** THE GBW FILE WAS UPDATED (H2O_sp.gbw) ****
             **** DENSITY H2O_sp.scfp WAS UPDATED ****
             **** ENERGY FILE WAS UPDATED (H2O_sp.en.tmp) ****
             **** THE GBW FILE WAS UPDATED (H2O_sp.gbw) ****
             **** DENSITY H2O_sp.scfp WAS UPDATED ****
----------------
ORBITAL ENERGIES
----------------

  NO   OCC          E(Eh)            E(eV) 
   0   2.0000     -19.113314      -520.0997 
   1   2.0000      -0.969453       -26.3801 
   2   2.0000      -0.517348       -14.0778 
   3   2.0000      -0.351580        -9.5670 
   4   2.0000      -0.285812        -7.7773 
   5   0.0000       0.048000         1.3061 
   6   0.0000       0.126240         3.4352 
   7   0.0000       0.576278        15.6813 
   8   0.0000       0.597764        16.2660 
   9   0.0000       0.917738        24.9729 
  10   0.0000       0.925110        25.1735 
  11   0.0000       1.007386        27.4124 
  12   0.0000       1.087538        29.5934 
  13   0.0000       1.332686        36.2642 
  14   0.0000       1.476138        40.1678 
  15   0.0000       1.577363        42.9222 
  16   0.0000       1.747237        47.5447 
  17   0.0000       2.211760        60.1851 
  18   0.0000       2.239662        60.9443 
  19   0.0000       2.927905        79.6723 
  20   0.0000       3.021571        82.2211 
  21   0.0000       3.144895        85.5770 
  22   0.0000       3.538976        96.3004 
  23   0.0000       3.781216       102.8921 
------------------
MOLECULAR ORBITALS
------------------
                      0         1         2         3         4         5   
                 -19.11331  -0.96945  -0.51735  -0.35158  -0.28581   0.04800
                   2.00000   2.00000   2.00000   2.00000   2.00000   0.00000
                  --------  --------  --------  --------  --------  --------
  0O   1s        -0.988799 -0.277705  0.000008  0.105379  0.000001  0.105378
  0O   2s         0.039541 -0.553745  0.000023  0.208259 -0.000011  0.170746
  0O   3s        -0.014076 -0.267723  0.000010  0.350638  0.000056  0.976723
  0O   1pz       -0.002134  0.083254 -0.257587  0.402808  0.289963 -0.173906
  0O   1px        0.001697 -0.066099 -0.409071 -0.319849 -0.000004  0.138082
  0O   1py       -0.001091  0.042522 -0.131574  0.205777 -0.567650 -0.088816
  0O   2pz        0.000078  0.002487 -0.099878  0.262062  0.223709 -0.241006
  0O   2px       -0.000064 -0.001988 -0.158621 -0.208096 -0.000016  0.191371
  0O   2py        0.000042  0.001283 -0.051031  0.133871 -0.438013 -0.123096
  0O   1dz2       0.000066 -0.000878  0.014217 -0.005383 -0.010840  0.002522
  0O   1dxz       0.000603 -0.001087  0.006520  0.012659  0.004962 -0.004182
  0O   1dyz       0.000757 -0.004181  0.008384 -0.009174  0.009054  0.005797
  0O   1dx2y2     0.000980 -0.004528 -0.012492 -0.003948 -0.006259  0.004015
  0O   1dxy       0.000310 -0.000552  0.003333  0.006466 -0.009715 -0.002140
  1H   1s        -0.002397 -0.198955 -0.331262 -0.190473 -0.000007 -0.123708
  1H   2s         0.002391 -0.014448 -0.103374 -0.066747  0.000002 -0.828849
  1H   1pz       -0.000029  0.006565 -0.010041  0.022753  0.013562 -0.003370
  1H   1px        0.003281  0.033551  0.028023  0.010325  0.000000 -0.000931
  1H   1py       -0.000015  0.003352 -0.005129  0.011623 -0.026546 -0.001723
  2H   1s        -0.002397 -0.198944  0.331260 -0.190497 -0.000040 -0.123717
  2H   2s         0.002390 -0.014446  0.103351 -0.066802 -0.000030 -0.828848
  2H   1pz       -0.002764 -0.025983  0.026874 -0.001088  0.013557 -0.000341
  2H   1px       -0.001061 -0.018130 -0.001285 -0.027526 -0.000005  0.003874
  2H   1py       -0.001412 -0.013273  0.013726 -0.000557 -0.026543 -0.000170
                      6         7         8         9        10        11   
                   0.12624   0.57628   0.59776   0.91774   0.92511   1.00739
                   0.00000   0.00000   0.00000   0.00000   0.00000   0.00000
                  --------  --------  --------  --------  --------  --------
  0O   1s        -0.000002  0.000002  0.100989 -0.114720  0.000264  0.000045
  0O   2s         0.000006  0.000025  0.352025 -0.462762  0.000922  0.000322
  0O   3s        -0.000022 -0.000061 -0.329849 -0.073717  0.000849 -0.000662
  0O   1pz       -0.188965 -0.165609 -0.241542 -0.592309  0.440601 -0.388132
  0O   1px       -0.300057 -0.262975  0.191785  0.471374 -0.001104 -0.616394
  0O   1py       -0.096506 -0.084609 -0.123361 -0.305543 -0.858179 -0.198623
  0O   2pz       -0.313840 -0.187319 -0.040315  0.846988 -0.466239  0.908549
  0O   2px       -0.498339 -0.297483  0.032039 -0.673814  0.001460  1.442575
  0O   2py       -0.160298 -0.095645 -0.020596  0.435792  0.905976  0.464444
  0O   1dz2       0.006113 -0.066071 -0.001261 -0.001738 -0.001583 -0.010224
  0O   1dxz       0.002803 -0.030289 -0.048644  0.009306  0.000689 -0.004654
  0O   1dyz       0.003605 -0.038968 -0.045925  0.001469  0.001335 -0.006028
  0O   1dx2y2    -0.005371  0.058049 -0.064271  0.005113 -0.000958  0.008987
  0O   1dxy       0.001433 -0.015471 -0.024851  0.004762 -0.001427 -0.002394
  1H   1s         0.095179  0.961148 -0.876582  0.366722 -0.001026 -0.382088
  1H   2s         1.271760 -0.818954  0.627505  0.045294  0.000046 -0.783343
  1H   1pz       -0.003127 -0.063666 -0.083005  0.078929 -0.010408  0.061751
  1H   1px        0.003069  0.106972 -0.171387 -0.121704  0.000281  0.257465
  1H   1py       -0.001595 -0.032514 -0.042402  0.040382  0.019723  0.031534
  2H   1s        -0.095195 -0.961147 -0.876544  0.366637 -0.001247  0.382381
  2H   2s        -1.271740  0.818997  0.627506  0.045058 -0.000534  0.783606
  2H   1pz        0.003616  0.111044  0.116227  0.128422 -0.010598  0.195705
  2H   1px       -0.002286 -0.031735  0.144997 -0.043065  0.000088  0.151100
  2H   1py        0.001847  0.056715  0.059370  0.065671  0.019616  0.099984
                     12        13        14        15        16        17   
                   1.08754   1.33269   1.47614   1.57736   1.74724   2.21176
                   0.00000   0.00000   0.00000   0.00000   0.00000   0.00000
                  --------  --------  --------  --------  --------  --------
  0O   1s        -0.263234  0.000010  0.080789 -0.000002 -0.000006  0.000001
  0O   2s        -1.628814  0.000051  0.651581 -0.000014 -0.000041  0.000003
  0O   3s         2.845735 -0.000083 -1.456622  0.000027  0.000116 -0.000051
  0O   1pz        0.045194 -0.000015 -0.082644 -0.001494 -0.054975  0.384219
  0O   1px       -0.036182 -0.000014  0.065619 -0.000002 -0.087308  0.610113
  0O   1py        0.023324  0.000012 -0.042244  0.002937 -0.028080  0.196257
  0O   2pz       -0.398464  0.000025  0.789854  0.265441  0.469080  0.116622
  0O   2px        0.316943  0.000045 -0.627082  0.000011  0.744993  0.185178
  0O   2py       -0.203759 -0.000028  0.403447 -0.519720  0.239582  0.059558
  0O   1dz2       0.009024 -0.070032  0.062594  0.118684  0.010844  0.112681
  0O   1dxz      -0.043553 -0.064206 -0.143082 -0.054412  0.004983  0.051631
  0O   1dyz      -0.003528  0.058513  0.110267 -0.099172  0.006398  0.066470
  0O   1dx2y2    -0.020752 -0.040431  0.051131  0.068523 -0.009539 -0.099005
  0O   1dxy      -0.022225  0.125737 -0.073077  0.106530  0.002535  0.026397
  1H   1s        -0.470190 -0.000019  0.642394 -0.000010 -0.392466 -0.237040
  1H   2s        -0.546692  0.000006  0.154614 -0.000007 -0.095216 -0.336063
  1H   1pz       -0.191825 -0.301798 -0.574878 -0.336863 -0.704476 -0.073184
  1H   1px        0.176055 -0.000011 -0.030878  0.000003 -0.000133  0.862064
  1H   1py       -0.097959  0.590951 -0.293587  0.659548 -0.359809 -0.037394
  2H   1s        -0.470050  0.000001  0.642446 -0.000008  0.392391  0.237070
  2H   2s        -0.546304  0.000042  0.154624 -0.000002  0.095176  0.336086
  2H   1pz       -0.211642  0.301836 -0.165661 -0.336898  0.234684  0.748260
  2H   1px        0.144483 -0.000022  0.618830  0.000004 -0.745907  0.209871
  2H   1py       -0.108146 -0.590877 -0.084631  0.659593  0.119880  0.382198
                     18        19        20        21        22        23   
                   2.23966   2.92790   3.02157   3.14490   3.53898   3.78122
                   0.00000   0.00000   0.00000   0.00000   0.00000   0.00000
                  --------  --------  --------  --------  --------  --------
  0O   1s         0.147627  0.000000 -0.000014 -0.010015  0.075774  0.000005
  0O   2s         0.706886 -0.000017 -0.000041  0.055284  0.153223  0.000020
  0O   3s         0.736656  0.000171 -0.000128 -0.673328  1.805507  0.000006
  0O   1pz       -0.393178 -0.007940  0.000046  0.038047 -0.257491 -0.236043
  0O   1px        0.312222  0.000009  0.000009 -0.030161  0.204484 -0.374827
  0O   1py       -0.200827  0.015508 -0.000010  0.019433 -0.131525 -0.120557
  0O   2pz       -0.179182  0.130219  0.000041  0.430094 -0.559568 -0.588916
  0O   2px        0.142259  0.000029 -0.000057 -0.341430  0.444324 -0.935205
  0O   2py       -0.091511 -0.255227  0.000101  0.219628 -0.285803 -0.300802
  0O   1dz2      -0.044757 -0.585076  0.427943 -0.310060  0.038466  0.852889
  0O   1dxz      -0.038811  0.268258  0.392257  0.766446  0.543917  0.391019
  0O   1dyz      -0.198584  0.488980 -0.357633 -0.496419  0.603521  0.502992
  0O   1dx2y2    -0.209787 -0.337817  0.247059 -0.181824  0.806798 -0.749311
  0O   1dxy      -0.019840 -0.525497 -0.767849  0.391452  0.277788  0.199725
  1H   1s        -0.415381 -0.000058  0.000075  0.377637 -1.073192  1.031121
  1H   2s        -0.212268 -0.000011  0.000014  0.086081 -0.226848  0.269843
  1H   1pz        0.069312 -0.178676 -0.175467 -0.428447 -0.056210  0.005510
  1H   1px        0.874973  0.000036 -0.000042 -0.184718  0.788866 -0.780591
  1H   1py        0.035416  0.350031  0.343433 -0.218806 -0.028699  0.002809
  2H   1s        -0.415371 -0.000120  0.000104  0.377729 -1.073136 -1.031141
  2H   2s        -0.212254 -0.000033  0.000020  0.086102 -0.226835 -0.269847
  2H   1pz       -0.711498 -0.178716  0.175565  0.012315 -0.681037 -0.657275
  2H   1px       -0.365003 -0.000098  0.000077  0.515167 -0.203430 -0.254331
  2H   1py       -0.363439  0.349809 -0.343561  0.006406 -0.347866 -0.335725


-------
DENSITY
-------
                  0          1          2          3          4          5    
      0       2.131896   0.273251   0.250433   0.042871  -0.034060   0.021907
      1       0.273251   0.703138   0.441434   0.075387  -0.059904   0.038537
      2       0.250433   0.441434   0.389641   0.237988  -0.188966   0.121503
      3       0.042871   0.075387   0.237988   0.639240  -0.057948  -0.088550
      4      -0.034060  -0.059904  -0.188966  -0.057948   0.548028  -0.029609
      5       0.021907   0.038537   0.121503  -0.088550  -0.029609   0.767384
      6       0.053695   0.106396   0.182467   0.392724  -0.086257  -0.119631
      7      -0.042629  -0.084486  -0.144869  -0.086268   0.263155  -0.044052
      8       0.027418   0.054350   0.093143  -0.119664  -0.044053   0.565910
      9      -0.000777  -0.001264  -0.003307  -0.018093  -0.008072   0.006276
     10       0.002080   0.006524   0.009443   0.009533  -0.013286  -0.002233
     11      -0.001109   0.000869  -0.004215  -0.007159  -0.000436  -0.016618
     12      -0.000256   0.003447  -0.000373  -0.001133   0.013348   0.008381
     13       0.001057   0.003330   0.004821  -0.002235  -0.006790   0.012766
     14       0.075093   0.140801  -0.026983  -0.015912   0.419157  -0.008126
     15      -0.010773  -0.011616  -0.039141  -0.002931   0.129190  -0.001503
     16       0.001207   0.002204   0.012443   0.032461  -0.007208  -0.002833
[...]
  2H   1pz            17.7       1.2       1.2       0.1       4.9       3.8
  2H   1px             4.4       0.0       0.0       7.0       0.0       1.1
  2H   1py             4.6       4.4       4.6       0.0       1.3       1.0


------------------------------------------
LOEWDIN REDUCED ORBITAL POPULATIONS PER MO
-------------------------------------------
THRESHOLD FOR PRINTING IS 0.1%
                      0         1         2         3         4         5   
                 -19.11331  -0.96945  -0.51735  -0.35158  -0.28581   0.04800
                   2.00000   2.00000   2.00000   2.00000   2.00000   0.00000
                  --------  --------  --------  --------  --------  --------
 0 O  s              99.8      59.9       0.0      11.8       0.0       8.5
 0 O  pz              0.0       1.1      16.0      41.2      19.6       3.2
 0 O  px              0.0       0.7      40.5      26.0       0.0       2.0
 0 O  py              0.0       0.3       4.2      10.7      75.1       0.8
 0 O  dz2             0.0       0.0       0.3       0.0       0.0       0.0
 0 O  dyz             0.0       0.0       0.1       0.1       0.0       0.1
 0 O  dx2y2           0.0       0.0       0.2       0.1       0.0       0.1
 1 H  s               0.0      15.3      18.3       3.8       0.0      36.3
 1 H  pz              0.0       0.0       0.2       1.0       0.5       0.1
 1 H  px              0.1       3.7       0.7       0.0       0.0       6.1
 1 H  py              0.0       0.0       0.1       0.3       2.1       0.0
 2 H  s               0.0      15.3      18.3       3.8       0.0      36.3
 2 H  pz              0.0       2.4       0.7       0.2       0.5       3.8
 2 H  px              0.0       0.6       0.1       1.0       0.0       1.4
 2 H  py              0.0       0.6       0.2       0.1       2.1       1.0

                      6         7         8         9        10        11   
                   0.12624   0.57628   0.59776   0.91774   0.92511   1.00739
                   0.00000   0.00000   0.00000   0.00000   0.00000   0.00000
                  --------  --------  --------  --------  --------  --------
 0 O  s               0.0       0.0       2.8       6.7       0.0       0.0
 0 O  pz              4.2       2.9       4.0      42.9      20.1      21.6
 0 O  px             10.5       7.3       2.5      27.1       0.0      54.6
 0 O  py              1.1       0.8       1.0      11.4      76.0       5.7
 0 O  dz2             0.2       4.1       0.0       0.0       0.0       1.7
 0 O  dxz             0.0       0.9       1.3       0.3       0.0       0.4
 0 O  dyz             0.1       1.4       1.2       0.3       0.0       0.6
 0 O  dx2y2           0.2       3.1       2.3       0.6       0.0       1.3
 0 O  dxy             0.0       0.2       0.3       0.1       0.0       0.1
 1 H  s              35.4      34.1      34.0       0.7       0.0       2.5
 1 H  pz              0.1       1.7       1.7       3.5       0.4       2.7
 1 H  px              6.3       3.4       6.2       0.2       0.0       1.1
 1 H  py              0.0       0.5       0.4       0.9       1.5       0.7
 2 H  s              35.4      34.1      34.0       0.7       0.0       2.5
 2 H  pz              4.9       4.0       2.7       1.0       0.4       0.1
 2 H  px              0.2       0.6       4.9       3.3       0.0       4.5
 2 H  py              1.3       1.0       0.7       0.3       1.5       0.0

                     12        13        14        15        16        17   
                   1.08754   1.33269   1.47614   1.57736   1.74724   2.21176
                   0.00000   0.00000   0.00000   0.00000   0.00000   0.00000
                  --------  --------  --------  --------  --------  --------
 0 O  s              77.9       0.0      10.4       0.0       0.0       0.0
 0 O  pz              0.2       0.0       7.1       1.7       2.6       3.8
 0 O  px              0.1       0.0       4.5       0.0       6.4       9.5
 0 O  py              0.1       0.0       1.8       6.4       0.7       1.0
 0 O  dz2             0.0       1.9       1.4       4.0       0.1       8.0
 0 O  dxz             2.3       1.6       6.5       0.8       0.0       1.7
 0 O  dyz             0.8       1.3       5.1       2.8       0.0       2.8
 0 O  dx2y2           2.2       0.6       1.4       1.3       0.1       6.2
 0 O  dxy             0.6       6.1       1.7       3.2       0.0       0.4
 1 H  s               0.1       0.0       2.0       0.0       0.9       0.9
 1 H  pz              6.2       9.2      21.2       8.2      34.5       0.2
 1 H  px              0.0       0.0       1.2       0.0       0.5      32.1
 1 H  py              1.6      35.1       5.5      31.6       9.0       0.1
 2 H  s               0.1       0.0       2.0       0.0       0.9       0.9
 2 H  pz              0.7       9.2       6.0       8.2       1.8      24.2
 2 H  px              6.9       0.0      20.4       0.0      41.7       1.9
 2 H  py              0.2      35.1       1.6      31.6       0.5       6.3

                     18        19        20        21        22        23   
                   2.23966   2.92790   3.02157   3.14490   3.53898   3.78122
                   0.00000   0.00000   0.00000   0.00000   0.00000   0.00000
                  --------  --------  --------  --------  --------  --------
 0 O  s              11.6       0.0       0.0       1.0       9.6       0.0
 0 O  pz              3.5       0.2       0.0       1.1       1.3       1.8
 0 O  px              2.2       0.0       0.0       0.7       0.8       4.5
 0 O  py              0.9       0.9       0.0       0.3       0.3       0.5
 0 O  dz2             0.4      28.8      14.5       6.9       0.0      27.6
 0 O  dxz             1.3       6.0      12.2      44.6      14.1       5.8
 0 O  dyz            11.0      20.1      10.1      16.6      15.9       9.6
 0 O  dx2y2          13.6       9.6       4.8       1.8      29.1      21.3
 0 O  dxy             0.3      23.2      46.8      11.6       3.7       1.5
 1 H  s               0.9       0.0       0.0       0.6       6.3       7.9
 1 H  pz              0.1       1.2       1.2       5.4       0.3       0.0
 1 H  px             26.6       0.0       0.0       0.3       5.8       5.8
 1 H  py              0.0       4.4       4.6       1.4       0.1       0.0
 2 H  s               0.9       0.0       0.0       0.6       6.3       7.9
 2 H  pz             17.7       1.2       1.2       0.1       4.9       3.8
 2 H  px              4.4       0.0       0.0       7.0       0.0       1.1
 2 H  py              4.6       4.4       4.6       0.0       1.3       1.0



                      *****************************
                      * MAYER POPULATION ANALYSIS *
                      *****************************

  NA   - Mulliken gross atomic population
  ZA   - Total nuclear charge
  QA   - Mulliken gross atomic charge
  VA   - Mayer's total valence
  BVA  - Mayer's bonded valence
  FA   - Mayer's free valence

  ATOM       NA         ZA         QA         VA         BVA        FA
  0 O      8.3147     8.0000    -0.3147     2.0048     2.0048    -0.0000
  1 H      0.8427     1.0000     0.1573     1.0099     1.0099     0.0000
  2 H      0.8427     1.0000     0.1573     1.0098     1.0098     0.0000

  Mayer bond orders larger than 0.100000
B(  0-O ,  1-H ) :   1.0024 B(  0-O ,  2-H ) :   1.0024 

-------
TIMINGS
-------

Total SCF time: 0 days 0 hours 0 min 1 sec 

Total time                  ....       1.185 sec
Sum of individual times     ....       1.058 sec  ( 89.3%)

Fock matrix formation       ....       0.832 sec  ( 70.2%)
  Split-RI-J                ....       0.141 sec  ( 16.9% of F)
  Chain of spheres X        ....       0.370 sec  ( 44.5% of F)
  XC integration            ....       0.290 sec  ( 34.9% of F)
    Basis function eval.    ....       0.064 sec  ( 22.1% of XC)
    Density eval.           ....       0.073 sec  ( 25.2% of XC)
    XC-Functional eval.     ....       0.071 sec  ( 24.5% of XC)
    XC-Potential eval.      ....       0.032 sec  ( 11.0% of XC)
Diagonalization             ....       0.000 sec  (  0.0%)
Density matrix formation    ....       0.000 sec  (  0.0%)
Population analysis         ....       0.013 sec  (  1.1%)
Initial guess               ....       0.044 sec  (  3.7%)
Orbital Transformation      ....       0.000 sec  (  0.0%)
Orbital Orthonormalization  ....       0.000 sec  (  0.0%)
DIIS solution               ....       0.024 sec  (  2.0%)
SOSCF solution              ....       0.007 sec  (  0.6%)
Grid generation             ....       0.138 sec  ( 11.6%)

Maximum memory used throughout the entire SCF-calculation: 43.4 MB

-------------------------   --------------------
FINAL SINGLE POINT ENERGY       -76.320253575020
-------------------------   --------------------


                            ***************************************
                            *     ORCA property calculations      *
                            ***************************************

                                    ---------------------
                                    Active property flags
                                    ---------------------
   (+) Dipole Moment
   (+) Polarizability


------------------------------------------------------------------------------
                       ORCA ELECTRIC PROPERTIES CALCULATION
------------------------------------------------------------------------------

Dipole Moment Calculation                       ... on
Quadrupole Moment Calculation                   ... off
Polarizability Calculation                      ... Analytic (CP-SCF)
GBWName                                         ... H2O_sp.gbw
Electron density                                ... H2O_sp.scfp
SHARK General Contraction Test:  Segmented basis detected
   -> Pre-screening matrix found on disk - Trying to read with NShells=12
   -> Passing Pre-screening matrix on to SHARK ...ok
   -> Leaving CheckPreScreeningMatrix
----------------------
SHARK INTEGRAL PACKAGE
----------------------

Number of atoms                             ...      3
Number of basis functions                   ...     24
Number of shells                            ...     12
Maximum angular momentum                    ...      2
Integral batch strategy                     ... SHARK/LIBINT Hybrid
RI-J (if used) integral strategy            ... SPLIT-RIJ (Revised 2003 algorithm where possible)
Printlevel                                  ...      2
Contraction scheme used                     ... SEGMENTED contraction
Coulomb Range Separation                    ... NOT USED
Exchange Range Separation                   ... NOT USED
Finite Nucleus Model                        ... NOT USED
Auxiliary Coulomb fitting basis             ... AVAILABLE
   # of basis functions in Aux-J            ...     71
   # of shells in Aux-J                     ...     25
   Maximum angular momentum in Aux-J        ...      4
Auxiliary J/K fitting basis                 ... NOT available
Auxiliary Correlation fitting basis         ... NOT available
Auxiliary 'external' fitting basis          ... NOT available
Integral threshold                          ...     1.000000e-10
Primitive cut-off                           ...     1.000000e-11
Primitive pair pre-selection threshold      ...     1.000000e-11

The origin for moment calculation is the CENTER OF MASS  = (-6.670878,  3.312905 -0.086116)

-------------
DIPOLE MOMENT
-------------
                                X             Y             Z
Electronic contribution:     -0.10244       0.06595       0.12903
Nuclear contribution   :      0.53826      -0.34625      -0.67791
                        -----------------------------------------
Total Dipole Moment    :      0.43582      -0.28031      -0.54888
                        -----------------------------------------
Magnitude (a.u.)       :      0.75484
Magnitude (Debye)      :      1.91864



--------------------
Rotational spectrum 
--------------------
 
Rotational constants in cm-1:    30.020816    13.330758     9.231504 
Rotational constants in MHz : 900001.415264 399646.078923 276753.533742 

 Dipole components along the rotational axes: 
x,y,z [a.u.] :     0.000019    -0.754837    -0.000035 
x,y,z [Debye]:     0.000049    -1.918642    -0.000089 

 
Transforming and storing MO dipole integrals   ... done

                ... starting polarizability calculation

The origin for moment calculation is the CENTER OF MASS  = (-6.670878,  3.312905 -0.086116)
Opening the Dipole integral file               ... (H2O_sp.dmo.tmp) done
Reading Dipole-MO integrals                    ... done
Solving CP-SCF equations                       ... 
------------------------------------------------------------------------------
                           ORCA CP-SCF CALCULATION
------------------------------------------------------------------------------

Input orbitals are from        ... H2O_sp.gbw
Input Perturbation             ... H2O_sp.cpv.tmp
Wavefunction output            ... H2O_sp.cpu.tmp
Perturbation mode              ... Real perturbation (singlet)
Solver                         ... POPLE
Max. number of iterations      ... 64
Convergence tolerance          ... 1.000e-03
Integral handling              ... Direct
DFT GridXC                     ... 1
COSX GridX                     ... 1
COSX IntAccX                   ... 3.067
COSX Algorithm                 ... Auto
Number of perturbations        ... 3
Number of operators            ... 1
Orbital ranges used for CP-SCF:
 Operator 0:  Orbitals   0...  4  to   5... 23
Variables per perturbation     ... 95
DFT calculation                         ... on
XC functional terms                     ... on
Exchange functional (SCF)               ... B88
Exchange functional (CP-SCF)            ... B88
   X-Alpha parameter    XAlpha (SCF)    ...  0.666667
   X-Alpha parameter    XAlpha (CP-SCF) ...  0.666667
   Becke's b parameter  XBeta (SCF)     ...  0.004200
   Becke's b parameter  XBeta (CP-SCF)  ...  0.004200
Correlation functional (SCF)            ... LYP
Correlation functional (CP-SCF)         ... LYP
 LDA part of GGA corr.  LDAOpt (SCF)    ... VWN-5
 LDA part of GGA corr.  LDAOpt (CP-SCF) ... VWN-5
Hybrid DFT                              ... on
   Exchange mixing (SCF)                ...  0.200
   Exchange mixing (CP-SCF)             ...  0.200
   GGA exch. scaling(SCF)               ...  0.720
   GGA exch. scaling (CP-SCF)           ...  0.720
   GGA corr. scaling (SCF)              ...  0.810
   GGA corr. scaling (CP-SCF)           ...  0.810

CP-SCF GRID
-----------

General Integration Accuracy     IntAcc      ... 3.467
Radial Grid Type                 RadialGrid  ... OptM3 with GC (2021)
Angular Grid (max. ang.)         AngularGrid ... 1 (Lebedev-50)
Angular grid pruning method      GridPruning ... 4 (adaptive)
Weight generation scheme         WeightScheme... Becke
Basis function cutoff            BFCut       ... 1.0000e-10
Integration weight cutoff        WCut        ... 1.0000e-14
Angular grids for H and He will be reduced by one unit
Partially contracted basis set               ... off
Rotationally invariant grid construction     ... off

Total number of grid points                  ...     1841
Total number of batches                      ...       30
Average number of points per batch           ...       61
Average number of grid points per atom       ...      614

CP-SCF GRIDX
------------

General Integration Accuracy     IntAcc      ... 3.067
Radial Grid Type                 RadialGrid  ... OptM3 with GC (2021)
Angular Grid (max. ang.)         AngularGrid ... 1 (Lebedev-50)
Angular grid pruning method      GridPruning ... 4 (adaptive)
Weight generation scheme         WeightScheme... Becke
Basis function cutoff            BFCut       ... 1.0000e-10
Integration weight cutoff        WCut        ... 1.0000e-14
Angular grids for H and He will be reduced by one unit
Partially contracted basis set               ... on
Rotationally invariant grid construction     ... off

Total number of grid points                  ...      841
Total number of batches                      ...       14
Average number of points per batch           ...       60
Average number of grid points per atom       ...      280

SHARK General Contraction Test:  Segmented basis detected
   -> Pre-screening matrix found on disk - Trying to read with NShells=12
   -> Passing Pre-screening matrix on to SHARK ...ok
   -> Leaving CheckPreScreeningMatrix
----------------------
SHARK INTEGRAL PACKAGE
----------------------

Number of atoms                             ...      3
Number of basis functions                   ...     24
Number of shells                            ...     12
Maximum angular momentum                    ...      2
Integral batch strategy                     ... SHARK/LIBINT Hybrid
RI-J (if used) integral strategy            ... SPLIT-RIJ (Revised 2003 algorithm where possible)
Printlevel                                  ...      2
Contraction scheme used                     ... SEGMENTED contraction
Coulomb Range Separation                    ... NOT USED
Exchange Range Separation                   ... NOT USED
Finite Nucleus Model                        ... NOT USED
Auxiliary Coulomb fitting basis             ... AVAILABLE
   # of basis functions in Aux-J            ...     71
   # of shells in Aux-J                     ...     25
   Maximum angular momentum in Aux-J        ...      4
Auxiliary J/K fitting basis                 ... NOT available
Auxiliary Correlation fitting basis         ... NOT available
Auxiliary 'external' fitting basis          ... NOT available
Integral threshold                          ...     1.000000e-10
Primitive cut-off                           ...     1.000000e-11
Primitive pair pre-selection threshold      ...     1.000000e-11

Recalculating density on grid  ... done
Calculating the xc-kernel      ... done
Memory available               ... 1020.5 MB
Memory needed per perturbation ...   0.1 MB
Perturbations treated per batch... 3
Number of batches              ... 1
     CP-SCF ITERATION   0:   6.3825e-01 (   0.2 sec   0/  3 done)
     CP-SCF ITERATION   1:   1.3626e-01 (   0.1 sec   0/  3 done)
     CP-SCF ITERATION   2:   1.7036e-02 (   0.1 sec   0/  3 done)
     CP-SCF ITERATION   3:   2.2435e-03 (   0.1 sec   0/  3 done)
     CP-SCF ITERATION   4:   3.5103e-04 (   0.1 sec   3/  3 done)
                    *** THE CP-SCF HAS CONVERGED ***
done
Reading CP-SCF coefficients                    ... done
Doing the polarizability tensor                ... done
Cleaning up                                    ... done

-------------------------
THE POLARIZABILITY TENSOR
-------------------------

The raw cartesian tensor (atomic units):
    6.77892      0.51290      1.00472  
    0.51290      3.70283      1.16371  
    1.00472      1.16371      5.38842  
diagonalized tensor: 
    3.10878      5.18440      7.57699  

   -0.00000     -0.57755      0.81636  
    0.89066      0.37117      0.26259  
   -0.45467      0.72710      0.51440  

Isotropic polarizability :   5.29006


Timings for individual modules:

Sum of individual times         ...        2.532 sec (=   0.042 min)
GTO integral calculation        ...        0.180 sec (=   0.003 min)   7.1 %
SCF iterations                  ...        1.296 sec (=   0.022 min)  51.2 %
Solution of CP-SCF eqns.        ...        1.056 sec (=   0.018 min)  41.7 %
                             ****ORCA TERMINATED NORMALLY****
TOTAL RUN TIME: 0 days 0 hours 0 minutes 2 seconds 787 msec
